default_name
 51769
  46.3440447  23.3854505  62.7305464  45.6684293  24.2389427  62.6740222
  45.0302658  24.1402985  61.7958907  46.2491273  25.1583301  62.5990849
  44.7874293  24.3209427  63.9070222  44.9704293  23.4509427  64.7320222
  43.9854293  25.4689427  64.0950222  43.8714135  26.0834217  63.3016022
  43.3964293  25.8479427  65.3300222  42.8572694  25.0167777  65.7845225
  44.5604293  26.2749427  66.2900222  43.9574379  26.7194451  67.0818038
  45.0998210  25.4139121  66.6847157  45.5834293  27.2829427  65.9190222
  45.7884293  27.8699427  64.7330222  45.0346918  27.7902219  63.9496805
  47.0314293  28.4979427  64.7960222  47.3695160  28.9818474  63.9764899
  47.6514293  28.4819427  66.0320222  48.8144293  29.1009427  66.6240222
  49.5122700  29.6022715  65.9533609  48.9814293  29.0239427  68.0190222
  49.7349589  29.6484816  68.4988599  48.1874293  28.1459427  68.8290222
  48.3269876  27.9593548  69.8938263  47.1324293  27.4699427  68.1680222
  46.6521224  26.7357855  68.8148754  46.7264293  27.6949427  66.7700222
  42.3884293  26.9179427  65.1790222  42.6134293  27.8779427  64.4730222
  41.2824293  26.7479427  65.9360222  41.2650934  26.1166034  66.7241906
  40.0324293  27.4849427  65.5930222  39.8779966  27.3246255  64.5259945
  38.7094293  27.1019427  66.3560222  37.9504473  27.8306255  66.0712999
  38.1934293  25.6679427  66.0450222  38.9517396  24.9386303  66.3299255
  37.2794566  25.4799722  66.6084239  37.9869781  25.5788828  64.9784633
  38.7864293  27.1269427  67.8340222  39.0497276  28.1306454  68.1677240
  37.8201228  26.8469560  68.2534965  39.5462233  26.4216634  68.1707643
  40.1174293  28.9449427  65.7910222  39.4354293  29.7209427  65.1650222
  41.0834293  29.3899427  66.7480222  41.6886898  28.6864271  67.1465505
  41.2654293  30.8289427  67.1900222  40.3059986  31.1642033  67.5839665
  42.3054293  30.8809427  68.3200222  43.2242466  30.4846140  67.8878200
  42.5934293  32.2779427  68.9670222  41.6751131  32.6747238  69.3998728
  43.3453484  32.1688987  69.7485760  42.9605370  32.9637991  68.2035213
  41.7954293  30.1129427  69.4100222  42.4258352  30.1268895  70.1338967
  41.7544293  31.6689427  66.0420222  41.2344293  32.7369427  65.7700222
  42.6864293  31.0919427  65.1510222  43.0036578  30.1456049  65.3056514
  43.2824293  31.8479427  64.0680222  43.0990494  32.9142966  64.1997807
  44.7454293  31.6159427  64.0660222  44.9958505  30.5553735  64.0419068
  45.2735941  32.1317692  63.2641088  45.2954293  32.1619427  65.3690222
  45.5514293  33.5399427  65.6610222  45.4579276  34.3420729  65.0544381
  45.9594293  33.5619427  66.9590222  46.1874171  34.5263383  67.4129623
  46.0074293  32.2829427  67.4770222  45.6054293  31.3979427  66.4570222
  45.5922540  30.3237321  66.6414112  42.5934293  31.4549427  62.7600222
  42.5164293  32.2539427  61.8460222  42.0494293  30.2439427  62.6500222
  42.1035691  29.6681427  63.4780455  41.3134293  29.7049427  61.4530222
  41.9857350  29.6005379  60.6014331  40.7484293  28.3149427  61.8080222
  41.5535543  27.6643281  62.1494511  40.0000293  28.4095413  62.5948186
  40.0984293  27.7099427  60.5530222  39.2786704  28.3611050  60.2495690
  40.8497473  27.6807036  59.7638654  39.5734293  26.3249427  60.7950222
  38.7624318  26.3521386  61.5227875  39.2100380  25.8924255  59.8628338
  40.6354293  25.4849427  61.3140222  41.5554400  25.8959004  61.2447868
  40.5044293  24.3529427  61.9550222  39.3374293  23.7939427  62.0410222
  38.5364876  24.2356732  61.6126923  39.2349844  22.9194862  62.5359268
  41.5714293  23.7319427  62.3730222  42.4837487  24.1287168  62.1988276
  41.4809218  22.8568696  62.8691615  40.1014293  30.6169427  61.1400222
  39.7974293  30.7929427  59.9530222  38.9154293  33.5089427  61.0500222
  38.4164293  33.6159427  59.9520222  38.4804293  32.3449427  62.0180222
  38.3064293  32.9299427  63.4610222  37.1624293  31.6919427  61.5250222
  35.9074293  32.5899427  61.5270222  34.8084293  32.1779427  60.5370222
  33.8384293  33.2219427  60.3130222  33.8854293  34.1809427  59.2740222
  35.0414293  34.3239427  58.2840222  39.4874293  31.2909427  62.2130222
  38.3051868  34.0080932  63.4713271  39.1034526  32.5841309  64.1071297
  37.3615586  32.5901879  63.8698025  36.9787185  30.8305185  62.1646304
  37.3370310  31.3255693  60.5218852  36.1953726  33.6146720  61.3301530
  35.4805371  32.5607081  62.5242249  34.2969596  31.2983821  60.9270041
  35.2571365  31.8777518  59.5962106  33.0067140  33.2809985  60.9984600
  33.0321053  34.8334685  59.1872107  35.2412605  35.3792822  58.1128865
  34.7313429  33.9249893  57.3292197  39.6565388  31.0351835  63.1583594
  40.1484293  34.0249427  61.3800222  40.5501662  33.7411882  62.2621731
  40.8844293  34.9529427  60.5620222  40.2474330  35.8277631  60.4315459
  42.1694293  35.3839427  61.3070222  42.8215879  34.5203116  61.4371397
  42.6884831  36.1462835  60.7260575  41.9051301  35.7894182  62.2836668
  41.3054293  34.4539427  59.2210222  41.2244293  35.0989427  58.2020222
  41.7454293  33.1809427  59.1580222  41.9060949  32.7514396  60.0579183
  42.0034293  32.3899427  57.9570222  42.8617822  32.8516979  57.4690552
  42.2760594  31.3931975  58.3038235  40.8674293  32.2709427  56.9520222
  41.0244293  32.6159427  55.7960222  39.6264293  31.8749427  57.4710222
  39.5778105  31.5542617  58.4275258  38.4444293  31.7609427  56.6500222
  38.7280613  31.2982451  55.7047375  37.3474293  30.9339427  57.2830222
  36.9248394  31.4312720  58.1560517  36.6082178  30.9164793  56.4821718
  37.7314293  29.5109427  57.6480222  38.5617637  29.5005945  58.3540949
  36.5064293  28.8839427  58.2970222  35.6757509  28.8935125  57.5913447
  36.7306598  27.8553478  58.5795359  36.2340388  29.4531474  59.1857908
  37.9914293  28.6029427  56.4600222  38.8096066  29.0080972  55.8645935
  38.2589938  27.6075421  56.8145473  37.0926836  28.5401427  55.8464986
  38.0034293  33.1879427  56.2510222  37.7324293  33.4609427  55.0800222
  38.6024293  36.2059427  55.7140222  38.1094293  37.0059427  54.9620222
  37.7114293  35.5889427  56.8950222  38.0614293  36.3139427  58.2450222
  36.2184293  35.7539427  56.5640222  35.0964293  35.6789427  57.5810222
  38.0454293  34.1939427  57.1900222  38.0378846  37.3880537  58.1542069
  39.0470494  36.0224959  58.5854608  37.3386119  36.0259077  58.9999302
  35.9986814  35.0682407  55.7476744  36.2597299  36.7536423  56.1518403
  34.7912430  36.6799813  57.8576483  35.4478915  35.1880869  58.4827095
  38.2469184  33.9982246  58.1433164  39.9494293  35.9589427  55.8060222
  40.3085334  35.5327170  56.6483257  40.9144293  36.3499427  54.7490222
  40.9478320  37.4320900  54.6227657  42.2984293  35.8659427  55.1930222
  42.4319610  36.0659590  56.2561600  42.3867315  34.7948021  55.0114716
  43.3174293  36.5699427  54.4370222  44.1860926  36.2686519  54.7131521
  40.4894293  35.7669427  53.4150222  40.5424293  36.5339427  52.4460222
  39.9484293  34.5109427  53.2970222  39.8724685  33.9593502  54.1396816
  39.6504293  33.8959427  52.0690222  40.3975836  34.1201989  51.3077280
  39.6644293  32.3909427  52.3390222  40.6691457  32.1520982  52.6877307
  38.9502774  32.2179843  53.1441137  39.3114293  31.4939427  51.1390222
  38.2905053  31.7051826  50.8209144  39.9979081  31.7047096  50.3190062
  39.4274293  30.0199427  51.5350222  40.4345348  29.8116078  51.8961789
  38.7059397  29.7891043  52.3187732  39.1494293  29.1399427  50.3510222
  38.8391102  29.5967389  49.5053635  39.2824293  27.8289427  50.3450222
  39.6714293  27.0909427  51.4470222  39.8712731  27.5589493  52.3194511
  39.7541252  26.0869142  51.3749953  39.0404293  27.1929427  49.2630222
  38.7538376  27.6985277  48.4369780  39.1369535  26.1878469  49.2392687
  38.4024293  34.4399427  51.4250222  38.3634293  34.2609427  50.2120222
  37.4624293  34.9439427  52.1910222  37.6827789  35.2311574  53.1339183
  36.0934293  35.0969427  51.7260222  36.0423387  35.0204172  50.6399132
  35.2454293  33.9739427  52.3370222  34.2132898  34.1892796  52.0605854
  35.5667374  33.0529744  51.8505259  35.3334293  33.8249427  53.7100222
  34.7689019  33.1007535  53.9901270  35.4824293  36.4319427  52.1140222
  34.3224293  36.6249427  51.8870222  36.3244293  37.4049427  52.6970222
  37.2828145  37.1307481  52.8595479  35.9044293  38.7969427  53.0870222
  35.1717399  38.6534848  53.8811791  36.8039277  39.2524139  53.5012058
  35.3174293  39.7279427  52.0330222  34.8434293  40.8079427  52.3680222
  35.2684293  39.2249427  50.7310222  35.6763473  38.3179439  50.5547964
  34.6584293  39.9409427  49.6100222  34.4647230  40.9643991  49.9311358
  35.3735183  39.9479811  48.7874059  33.3244293  39.3029427  49.1170222
  32.5254293  40.0289427  48.5500222  32.9594293  38.0569427  49.6330222
  33.7355970  37.5552441  50.0404060  31.6644293  37.3619427  49.5110222
  31.1364087  37.6392570  48.5986680  31.9254293  35.8529427  49.4860222
  32.1341696  35.4951440  50.4942418  30.6394293  35.1289427  48.9270222
  30.4303092  35.4859112  47.9185861  30.8094048  34.0525471  48.9029116
  29.7890715  35.3475953  49.5729202  33.1134293  35.3439427  48.6590222
  34.0355909  35.7854357  49.0369165  33.1724255  34.2583279  48.7368650
  32.9774055  35.6259699  47.6149633  30.6134293  37.7939427  50.5550222
  29.4474293  37.7579427  50.2650222  31.1804293  37.9989427  51.8100222
  32.0961570  37.5996768  51.9587805  30.4244293  38.4739427  52.9860222
  29.4705280  37.9646328  53.1230434  31.3104293  38.2269427  54.2540222
  32.3414431  38.4744262  54.0013134  30.8504293  39.0929427  55.4720222
  29.8195846  38.8456705  55.7256293  31.4937371  38.8880709  56.3277576
  30.9168536  40.1496159  55.2129254  31.3504293  36.7759427  54.7050222
  31.7547954  36.1569912  53.9040919  31.9837902  36.6865764  55.5876134
  30.3414251  36.4422585  54.9472332  29.7564293  39.8349427  52.8210222
  28.6844293  40.0909427  53.3500222  30.3974293  40.7349427  51.9840222
  31.2120631  40.3667726  51.5139988  29.9174293  42.1059427  51.6070222
  29.8055950  42.7091007  52.5080176  30.9164293  42.8159427  50.6560222
  31.2440660  42.1359356  49.8696737  30.4560394  43.6956787  50.2063492
  32.1244293  43.2449427  51.4960222  31.7815225  43.9828678  52.2212685
  32.4950652  42.3648193  52.0214876  33.1924293  43.8149427  50.6940222
  33.6216399  42.9930996  50.1209156  32.7231867  44.5255495  50.0136188
  34.2754293  44.5039427  51.4660222  34.9316456  45.0102159  50.7580898
  33.8124411  45.2407579  52.1224096  35.0594293  43.5579427  52.2690222
  35.4888793  42.8753622  51.6609463  35.7772335  44.0585255  52.7732781
  34.4516256  43.0890213  52.9253654  28.6114293  42.1519427  50.6920222
  28.5524293  41.2579427  49.8690222  27.6584293  43.0949427  50.8900222
  27.9299752  43.8945464  51.4440944  26.2804293  43.0159427  50.4190222
  25.7236478  42.1835603  50.8494093  25.6654293  44.3309427  50.9230222
  26.0264239  44.4208589  51.9475695  26.1599511  45.0741440  50.2975623
  24.1274293  44.6099427  50.9090222  23.5094293  45.0009427  49.9420222
  23.4364293  44.3719427  52.0510222  22.4410168  44.5405434  52.0797882
  23.9202112  44.0271204  52.8678168  26.0894293  42.8409427  48.9320222
  25.1284293  42.1139427  48.6390222  27.0104293  43.2619427  47.9890222
  27.8901691  43.6083468  48.3442144  26.7324293  43.4239427  46.6080222
  25.8035557  42.8973324  46.3889914  26.5864293  44.8669427  46.1680222
  27.5790723  45.2832545  45.9964306  26.0522121  44.8001456  45.2202616
  25.8454293  45.7709427  47.0630222  26.2614293  46.0889427  48.1630222
  24.7054293  46.2609427  46.5220222  24.1258564  46.8909620  47.0579985
  24.4395634  45.9943148  45.5848319  27.7494293  42.5939427  45.7980222
  27.8724293  42.8189427  44.5870222  28.4804293  41.6449427  46.4810222
  28.5076541  41.7106134  47.4885168  29.1764293  40.5679427  45.8540222
  30.0763556  40.9173412  45.3479069  29.5884293  39.5789427  46.9670222
  30.2662493  40.1758465  47.5772396  28.8566505  39.0899885  47.6100802
  30.4364293  38.4589427  46.3330222  31.7234293  38.7299427  45.8640222
  32.2077667  39.6773797  46.1004123  32.4024293  37.7619427  45.0740222
  33.3738837  38.0617781  44.6809880  31.8984293  36.4959427  44.7920222
  32.4322183  35.7370737  44.2199321  30.5624293  36.2109427  45.3180222
  30.1396934  35.2154384  45.1825022  29.8214293  37.2079427  45.9950222
  28.7801249  37.0265640  46.2612677  28.2844293  39.8349427  44.8540222
  27.1414293  39.5859427  45.0830222  28.9074293  39.3189427  43.7270222
  29.8800860  39.5820691  43.6577188  28.3464293  38.4199427  42.6890222
  27.4303735  37.9882481  43.0922352  28.0054293  39.1529427  41.3420222
  28.8846574  39.6981090  40.9987279  27.5784293  38.1059427  40.2490222
  26.6989221  37.5606661  40.5914275  27.3443767  38.6251106  39.3196221
  28.3956139  37.4053365  40.0773772  26.8324293  40.1049427  41.6090222
  27.1182488  40.8296252  42.3714162  26.5727069  40.6291963  40.6893472
  25.9717227  39.5333698  41.9562819  29.4294293  37.3219427  42.3080222
  30.5344293  37.6619427  41.9890222  29.0274293  35.9139427  42.3160222
  27.7824293  35.3739427  42.7460222  26.9884578  36.0626315  42.4572018
  27.8030398  35.2787648  43.8316627  27.6694293  34.0179427  42.0430222
  27.2982788  34.1337595  41.0247232  27.0129566  33.3445212  42.5940652
  29.0824293  33.5179427  42.0570222  29.3561964  32.8174994  41.2680166
  29.2509481  33.0538044  43.0287612  29.9194293  34.7909427  41.9350222
  30.6748391  34.7373013  42.7189717  30.5924293  34.8789427  40.5990222
  30.0164293  35.3849427  39.6180222  31.8664293  34.2179427  40.5490222
  32.3585783  34.0665358  41.4179092  32.5534293  33.8799427  39.2880222
  32.9755000  34.7311117  38.7537311  33.6654293  32.9179427  39.6160222
  33.2401336  32.0124613  40.0488354  34.4444293  32.5589427  38.3420222
  34.8704380  33.4639241  37.9088652  35.2460559  31.8631100  38.5896325
  33.7704436  32.0946469  37.6221102  34.4734293  33.4369427  40.5870222
  35.1762845  32.8138089  40.7852626  31.6114293  33.3749427  38.1890222
  30.8554293  32.3899427  38.4280222  31.6834293  33.9589427  36.9380222
  32.2258662  34.8104198  36.9671482  31.0584293  33.5849427  35.6850222
  29.9831150  33.5319826  35.8552968  31.3214293  34.5409427  34.5310222
  32.3701587  34.8340489  34.5795482  31.1475953  33.9640730  33.6226703
  30.4124293  35.8359427  34.5150222  30.0964293  36.4109427  35.5400222
  30.0654293  36.2309427  33.3560222  31.5034293  32.1479427  35.3050222
  32.6984293  31.9329427  35.0240222  30.5784293  31.1769427  35.1350222
  29.6300029  31.4036999  35.3980197  30.8914293  29.7689427  34.7680222
  31.8416486  29.7719166  34.2340057  31.0114293  28.8419427  35.9690222
  31.1997524  27.8384195  35.5874794  32.1164293  29.2319427  36.9320222
  31.9285391  30.2352426  37.3143670  32.1414684  28.5260825  37.7622239
  33.0745185  29.2151760  36.4125169  29.6824293  28.8839427  36.7640222
  28.8644891  28.5548858  36.1230873  29.7543896  28.2235953  37.6282343
  29.4920084  29.9029423  37.1008910  29.9504293  29.2419427  33.7250222
  29.9964293  28.0379427  33.3910222  29.1154293  30.1889427  33.1630222
  29.2104628  31.1605891  33.4218101  28.0664293  29.8219427  32.1760222
  27.5157798  28.9379011  32.4975105  27.3700666  30.6453760  32.0174793
  28.7944293  29.5059427  30.8310222  29.9564293  29.2859427  30.7700222
  27.9784293  29.4659427  29.6780222  26.5834293  29.9059427  29.5840222
  26.5248698  30.9131447  29.9965936  25.9806833  29.2298662  30.1904188
  26.1974293  29.8539427  28.0730222  26.2778049  30.8483703  27.6339862
  25.1759725  29.4899619  27.9623641  27.2164293  28.8609427  27.4270222
  27.5483865  29.1764598  26.4379052  26.7986544  27.8560299  27.3660785
  28.4174293  28.8779427  28.4190222  28.6930963  27.8414128  28.6132173
  29.6344293  29.6309427  27.7900222  30.3404293  29.0719427  26.9720222
  29.8534293  30.9679427  28.1390222  29.0630546  31.4039635  28.5921149
  30.9314293  31.8089427  27.6890222  31.4666378  31.2754021  26.9035379
  30.4754293  33.1939427  27.1300222  30.2456446  34.0083451  27.8170789
  31.3989440  33.4189690  26.5965581  29.3804293  33.1759427  26.1040222
  29.7814293  33.0209427  24.7860222  30.8384410  32.8966536  24.5506958
  28.8144293  33.0239427  23.7400222  29.0979778  32.9733767  22.6887639
  27.4394293  33.0959427  24.1040222  26.6815952  33.2138369  23.3294976
  27.0634293  33.0169427  25.4340222  25.9967635  32.9805083  25.6553742
  28.0104293  32.9829427  26.4930222  27.6766378  32.8187020  27.5175748
  32.1314293  31.8919427  28.6630222  33.0584293  32.7079427  28.4080222
  32.2484293  31.0519427  29.7580222  31.3653840  30.8539153  30.2064810
  33.4654293  30.6159427  30.4140222  34.0096105  31.5572724  30.4906022
  33.1734293  30.1239427  31.7840222  32.6366334  29.1771919  31.7239130
  34.1083235  29.9772413  32.3249028  32.5606472  30.8556671  32.3104978
  34.3744293  29.6489427  29.6190222  34.1364293  29.2599427  28.4550222
  35.5044293  29.2869427  30.2510222  35.8420947  29.9204229  30.9615039
  36.3254293  28.1249427  29.9110222  36.5374585  28.0974180  28.8421980
  37.6174293  28.2339427  30.6510222  37.3494951  28.1769173  31.7060381
  38.2449245  27.3819172  30.3894836  38.4674293  29.4579427  30.4900222
  38.7554293  29.9759427  29.1970222  38.2569784  29.5186094  28.3423335
  39.6454293  31.0369427  29.0020222  39.8622792  31.3187756  27.9716596
  40.2574293  31.7379427  30.0730222  40.9027739  32.6061168  29.9392163
  39.9924293  31.2559427  31.3570222  40.4832430  31.7168401  32.2142128
  39.0914293  30.1739427  31.5510222  38.8414912  29.8471311  32.5603908
  35.6814293  26.7359427  30.1310222  36.2694293  25.7279427  29.8130222
  34.4394293  26.6409427  30.7990222  34.0112069  27.4999315  31.1134515
  34.0466773  25.7191590  30.9261463  28.1430113  41.5543833  34.2254083
  34.0050113  26.4882753  22.3024083  21.3980113  36.4713833  46.5526493
  35.2320113  37.4513833  29.5174083  55.8256993  28.3892753  75.9181313
  16.3671673  55.9294913  48.5236493  38.0808553  20.9612753  31.3044083
  20.0700113  34.1052753  14.8941673  40.3288553  38.9803833  78.6321313
  50.5368553  15.4071673  64.7648903  50.5368553  33.8852753  26.7524083
  18.0940113  44.2543833  59.7088903  14.8881673  26.1562753  29.4784083
  32.2630113  24.2472753  76.3111313  52.2958553  42.5173833  52.9026493
  35.8230113  54.0474913  50.6986493  32.1390113  37.1053833  13.5401673
  52.7418553  42.2253833  69.1128903  25.3820113  20.1742753  39.5606493
  34.8520113  15.8941673  62.3678903  23.7840113  54.1924913  38.8286493
  35.2990113  20.9712753  54.9386493  25.8350113  54.3164913  47.3596493
  51.4048553  40.9393833  60.4608903  20.1310113  25.9282753  35.8144083
  36.5140113  33.3802753  20.2994083  42.1708553  16.1291673  66.4708903
  47.2668553  41.1093833  75.9091313  41.0898553  49.6053833  52.1176493
  34.4520113  18.6662753  40.0306493  25.6750113  41.2803833  17.6831673
  18.4000113  36.2363833  53.3946493  37.1308553  29.9402753  78.2901313
  21.4090113  45.6923833  37.7706493  33.5620113  18.5442753  23.9224083
  17.7371673  50.6973833  52.9676493  30.4160113  20.5522753  69.3878903
  57.7996993  34.1052753  71.9128903  18.2660113  29.9402753  21.2714083
  45.8668553  40.2033833  27.8874083  47.9378553  28.1662753  54.2366493
  28.0260113  36.4933833   1.9591673  52.2888553  16.6072753  68.2288903
  53.7168553  34.3722753  24.3554083  66.5786993  54.0594913  80.4771313
  66.3336993  54.5474913  79.7971313  67.4416993  53.9864913  80.3771313
  66.6696993  54.1204913  80.3621313  66.3876993  60.9754913  85.1481313
  65.8636993  61.5714913  85.5111313  66.7846993  60.6074913  85.8321313
  66.3686993  61.0094913  85.3031313  56.2566993  65.1154913  80.6041313
  55.8156993  65.2334913  81.3471313  55.9736993  64.3404913  80.3191313
  56.1496993  65.0184913  80.6721313  55.9996993  58.9074913  77.1111313
  55.2216993  59.0694913  76.7511313  56.0386993  58.0364913  77.1331313
  55.8906993  58.8024913  77.0611313  59.1386993  64.1704913  75.7831313
  58.7466993  63.7994913  75.0971313  59.0586993  63.5724913  76.4121313
  59.0686993  64.0274913  75.7741313  69.0586993  62.0424913  81.8241313
  69.1386993  62.0464913  80.9551313  68.4746993  61.4104913  81.9731313
  68.9836993  61.9494913  81.7181313  58.7656993  65.8114913  79.6831313
  59.3736993  65.6414913  80.2861313  58.0146993  65.6714913  80.1041313
  58.7446993  65.7654913  79.8341313  63.0476993  55.1464913  79.6321313
  62.9776993  55.8234913  79.0861313  63.7886993  54.7584913  79.3831313
  63.1466993  55.1894913  79.5141313  56.1966993  67.8504913  86.8591313
  56.3256993  67.5704913  87.6751313  55.5866993  67.3094913  86.5501313
  56.1256993  67.7294913  86.9341313  57.6426993  62.3714913  81.0611313
  57.1806993  61.9794913  80.4341313  58.3426993  61.8584913  81.1531313
  57.6776993  62.2384913  80.9821313  62.1506993  57.9814913  86.4081313
  62.8286993  57.9994913  85.8591313  62.1056993  57.1454913  86.6531313
  62.2436993  57.8604913  86.3631313  59.6436993  60.4714913  81.0841313
  60.4606993  60.2844913  81.3271313  59.1666993  59.8574913  81.4801313
  59.6936993  60.3534913  81.1791313  63.8476993  66.4524913  83.6941313
  64.1956993  65.6534913  83.7241313  64.5126993  66.9564913  83.4391313
  63.9976993  66.4084913  83.6611313  63.9046993  65.9014913  79.9051313
  64.2356993  65.2574913  80.3911313  64.1446993  65.6904913  79.0941313
  63.9886993  65.7754913  79.8571313  60.2406993  55.5654913  80.3501313
  59.9446993  56.0664913  79.7001313  61.1076993  55.6434913  80.2931313
  60.3246993  55.6514913  80.2461313  70.4306993  52.9924913  90.3581313
  70.2726993  53.7614913  89.9761313  69.6586993  52.7724913  90.7021313
  70.2926993  53.0734913  90.3531313  63.2196993  54.7074913  82.5731313
  63.2926993  55.5674913  82.7021313  63.1816993  54.6324913  81.7051313
  63.2246993  54.8234913  82.4641313  67.8926993  57.6334913  74.8721313
  67.4426993  58.3144913  75.1791313  68.0066993  57.1294913  75.5751313
  67.8436993  57.6594913  75.0211313  56.0986993  60.1324913  84.0741313
  55.8426993  60.9634913  83.9991313  55.4346993  59.7494913  84.4911313
  55.9626993  60.1984913  84.1251313  61.8486993  67.6864913  79.4541313
  61.2696993  67.4114913  80.0461313  62.4726993  67.0774913  79.4791313
  61.8556993  67.5564913  79.5451313  59.1276993  54.9494913  84.5651313
  58.6066993  54.3214913  84.2571313  59.7186993  54.5124913  85.0361313
  59.1386993  54.7914913  84.5891313  58.3716993  66.9994913  83.4051313
  58.7946993  66.6434913  82.7311313  58.6956993  66.5774913  84.0971313
  58.4816993  66.8844913  83.4081313  65.4096993  59.2484913  80.7881313
  65.6966993  59.0164913  79.9981313  66.1416993  59.3274913  81.2571313
  65.5596993  59.2254913  80.7411313  66.1316993  59.5874913  75.9091313
  66.4126993  60.3754913  76.1581313  65.3556993  59.7524913  75.5461313
  66.0586993  59.7284913  75.8921313  55.5146993  57.2274913  90.4331313
  55.5106993  57.8144913  91.0791313  56.1086993  57.5394913  89.8761313
  55.6016993  57.3604913  90.4461313  68.4976993  55.6544913  76.7791313
  69.0376993  54.9724913  76.8551313  68.5596993  56.0524913  77.5531313
  68.5866993  55.6124913  76.9051313  56.4516993  56.8224913  79.3481313
  56.3376993  55.9584913  79.3791313  55.9766993  57.1164913  80.0181313
  56.3646993  56.7384913  79.4511313  65.7556993  58.0304913  78.0931313
  65.2476993  57.3684913  77.8391313  65.8076993  58.5344913  77.3831313
  65.6886993  58.0074913  77.9511313  65.7556993  54.9714913  77.9841313
  65.3006993  54.5694913  77.3581313  66.5286993  55.1264913  77.6091313
  65.8026993  54.9354913  77.8361313  64.3536993  57.3384913  82.5061313
  64.4276993  57.9064913  81.8481313  64.4746993  57.8304913  83.2161313
  64.3816993  57.4954913  82.5141313  69.5786993  67.1734913  80.9181313
  70.2796993  66.6914913  81.1071313  68.9186993  66.6044913  80.9631313
  69.5846993  67.0184913  80.9521313  58.9616993  53.1614913  80.8541313
  59.4976993  53.8494913  80.8441313  58.9646993  52.8874913  80.0261313
  59.0406993  53.2224913  80.7301313  61.9176993  63.5944913  84.8791313
  62.0896993  63.3844913  85.7081313  61.2626993  63.0604913  84.6631313
  61.8466993  63.4844913  84.9701313  68.1456993  57.5084913  88.3941313
  68.0506993  57.8274913  89.2001313  67.5526993  56.8694913  88.3561313
  68.0436993  57.4604913  88.5081313  62.6676993  63.5324913  87.4691313
  62.7206993  64.3794913  87.6711313  62.3826993  63.1624913  88.2061313
  62.6336993  63.6024913  87.6071313  68.8446993  64.2274913  86.5991313
  68.3306993  63.8154913  87.1701313  68.7186993  65.0714913  86.7801313
  68.7506993  64.2914913  86.7101313  69.4016993  53.4524913  81.2301313
  69.4506993  53.1344913  82.0411313  69.7246993  52.8084913  80.7371313
  69.4566993  53.3104913  81.2771313  59.4096993  56.9714913  82.5081313
  59.6816993  56.5414913  81.8001313  59.2336993  56.3354913  83.0791313
  59.4236993  56.8144913  82.4881313  59.2336993  64.3984913  82.0571313
  60.0846993  64.3184913  81.8841313  58.8766993  63.7164913  81.6451313
  59.3066993  64.2854913  81.9701313  57.5506993  58.0734913  85.5901313
  58.3936993  58.2934913  85.5471313  57.1616993  58.6464913  85.0591313
  57.6176993  58.1904913  85.5051313  69.9926993  61.2034913  76.3111313
  69.7726993  61.9344913  75.8891313  69.5446993  61.2544913  77.0581313
  69.8936993  61.3184913  76.3591313  61.6016993  64.4054913  80.2921313
  62.3146993  64.9004913  80.3821313  61.8236993  63.8384913  79.6661313
  61.7396993  64.3944913  80.2131313  55.7576993  66.0484913  83.6121313
  55.0906993  66.5364913  83.8881313  56.4376993  66.5934913  83.6411313
  55.7596993  66.2004913  83.6571313  55.8236993  62.7324913  78.7151313
  55.6386993  61.8934913  78.8671313  56.4826993  62.6964913  78.1451313
  55.8936993  62.6034913  78.6531313  55.9956993  66.8964913  78.2901313
  56.5476993  67.4654913  78.6541313  55.7636993  66.3814913  78.9551313
  56.0426993  66.9044913  78.4421313  60.1996993  65.8964913  85.3791313
  60.6666993  66.1854913  86.0571313  60.7716993  65.4184913  84.9251313
  60.3536993  65.8684913  85.4121313  68.6356993  57.9104913  83.1161313
  68.9796993  58.0624913  83.9031313  68.1826993  57.1724913  83.2291313
  68.6196993  57.8234913  83.2491313  55.8256993  65.3454913  75.9181313
  56.5816993  64.9134913  75.9761313  55.8406993  65.8774913  76.6091313
  55.9396993  65.3604913  76.0291313  56.7656993  63.5664913  83.9231313
  57.1966993  63.4374913  83.1761313  56.5606993  64.4144913  83.8971313
  56.7986993  63.6724913  83.8091313  63.1116993  57.1304913  77.5731313
  63.1096993  57.0134913  76.7081313  62.9306993  57.9784913  77.6651313
  63.0846993  57.2384913  77.4591313  60.8496993  67.0824913  82.2051313
  60.9756993  67.9254913  82.3921313  61.5176993  66.6834913  82.6011313
  60.9676993  67.1484913  82.2911313  59.4646993  59.9624913  77.2071313
  59.3366993  59.5144913  77.9451313  58.8826993  59.6204913  76.6551313
  59.3596993  59.8454913  77.2351313  59.6316993  61.7924913  83.8061313
  58.8506993  61.7334913  83.4231313  59.7036993  61.0404913  84.2431313
  59.5266993  61.6734913  83.8141313  60.0616993  61.5294913  87.2741313
  60.0866993  60.8544913  86.7231313  59.4156993  62.0254913  86.9621313
  59.9706993  61.5024913  87.1471313  69.9566993  59.2424913  85.6701313
  69.2946993  59.5704913  86.1331313  70.1436993  59.8764913  85.1011313
  69.8866993  59.3844913  85.6541313  66.6016993  55.1484913  89.0991313
  66.7506993  54.3234913  88.8561313  66.9806993  55.2034913  89.8831313
  66.6796993  55.0344913  89.1791313  68.1496993  57.2114913  79.1811313
  68.6396993  57.9284913  79.1041313  67.3596993  57.4724913  78.9181313
  68.1056993  57.3554913  79.1311313  69.4636993  65.0894913  91.0911313
  69.9476993  65.8074913  91.1891313  69.8576993  64.6624913  90.4401313
  69.5936993  65.1324913  91.0091313  64.7316993  58.6814913  84.9061313
  65.2116993  59.3804913  85.1141313  65.1046993  58.0344913  85.3571313
  64.8576993  58.6894913  85.0031313  66.9206993  61.8504913  77.1801313
  66.9126993  62.5724913  76.6901313  66.2816993  61.9854913  77.7571313
  66.8256993  61.9774913  77.1931313  67.9506993  65.6374913  84.4051313
  67.1536993  65.8614913  84.6791313  68.2086993  65.0434913  84.9901313
  67.8706993  65.5824913  84.5321313  61.5136993  54.1924913  76.8411313
  61.6106993  54.0854913  77.7021313  60.8056993  54.6984913  76.7761313
  61.4236993  54.2514913  76.9591313  58.6356993  62.4994913  78.0841313
  58.9596993  61.7204913  77.8621313  59.2816993  62.8674913  78.5391313
  58.7786993  62.4384913  78.1181313  66.9416993  63.4414913  88.8511313
  66.7866993  64.0514913  89.4551313  67.4756993  62.8834913  89.2571313
  66.9976993  63.4494913  89.0001313  55.6326993  54.1604913  79.0521313
  55.7616993  53.4524913  78.5601313  55.2656993  53.8424913  79.7771313
  55.5976993  54.0084913  79.0871313  65.3256993  61.8414913  79.5091313
  65.3846993  62.4914913  80.0881313  65.1366993  61.1454913  80.0001313
  65.3066993  61.8344913  79.6671313  70.5516993  66.1704913  85.3781313
  70.0726993  66.4684913  84.7121313  70.1956993  65.3944913  85.5561313
  70.4286993  66.0994913  85.3061313  59.8216993  56.3584913  76.0211313
  59.3106993  56.4114913  75.3151313  60.6056993  56.5984913  75.7251313
  59.8616993  56.4014913  75.8731313  64.5486993  63.8884913  83.9401313
  63.7016993  63.6944913  84.0211313  64.8726993  63.7234913  84.7331313
  64.4706993  63.8354913  84.0691313  58.3966993  63.5814913  86.2561313
  59.1186993  64.0694913  86.2191313  58.1266993  63.5514913  85.4271313
  58.4636993  63.6494913  86.1281313  61.6266993  58.7524913  82.9911313
  62.4726993  58.5624913  83.0891313  61.2566993  57.9754913  82.8531313
  61.6966993  58.6094913  82.9851313  56.4476993  60.0904913  79.6461313
  56.9366993  59.7984913  80.3071313  56.5766993  59.4974913  79.0191313
  56.5386993  59.9594913  79.6511313  60.9726993  61.5244913  75.1321313
  60.3626993  61.1194913  75.6061313  60.5866993  61.6424913  74.3591313
  60.8256993  61.4814913  75.0881313  57.7916993  64.6334913  90.5341313
  57.3706993  64.1154913  89.9731313  57.4396993  65.4194913  90.3911313
  57.6776993  64.6734913  90.4301313  62.4276993  59.9854913  77.8421313
  62.6996993  60.8114913  77.9091313  61.5646993  60.0604913  77.7461313
  62.3406993  60.1184913  77.8371313  55.9076993  55.9554913  84.3781313
  55.9516993  56.2994913  83.5771313  56.6626993  56.1924913  84.7451313
  56.0256993  56.0414913  84.3141313  70.4746993  67.4194913  76.4451313
  70.8086993  66.6134913  76.4801313  69.7196993  67.3474913  76.8751313
  70.4126993  67.2894913  76.5141313  70.9566993  59.2534913  82.1041313
  70.2116993  58.9304913  82.4221313  70.9586993  60.0794913  82.3841313
  70.8466993  59.3274913  82.1921313  67.8486993  65.2944913  75.8481313
  68.5326993  64.7804913  75.6791313  67.4316993  65.3404913  75.0831313
  67.8876993  65.2254913  75.7101313  62.5306993  66.4444913  87.1521313
  62.2326993  67.0364913  87.7191313  62.5856993  66.8864913  86.4031313
  62.4946993  66.5974913  87.1251313  60.5096993  65.3944913  90.5501313
  59.7036993  65.1044913  90.7171313  60.4206993  66.2624913  90.5561313
  60.3776993  65.4794913  90.5751313  69.8686993  55.5834913  89.5651313
  70.6126993  56.0354913  89.5021313  69.3026993  56.0534913  89.0961313
  69.8956993  55.7204913  89.4871313  65.0466993  62.8674913  86.6431313
  65.5226993  63.2414913  87.2711313  64.2236993  63.0014913  86.9021313
  64.9956993  62.9424913  86.7741313  61.7566993  58.4704913  89.3841313
  61.9176993  57.7264913  89.8111313  61.7116993  58.2214913  88.5491313
  61.7736993  58.3234913  89.3241313  63.5086993  54.2784913  89.2641313
  64.2136993  54.5984913  88.8621313  63.7496993  53.4714913  89.4911313
  63.6476993  54.2064913  89.2381313  64.0876993  63.2644913  75.1751313
  63.2826993  63.0874913  74.8901313  64.0546993  64.1154913  75.3671313
  63.9636993  63.3634913  75.1621313  60.0176993  59.3314913  85.3251313
  60.4576993  59.2284913  84.5791313  60.5626993  59.0184913  85.9301313
  60.1626993  59.2704913  85.3041313  67.7216993  59.9704913  87.2151313
  68.0236993  60.3904913  87.9181313  67.7576993  59.1304913  87.4471313
  67.7716993  59.9084913  87.3531313  70.2696993  59.4174913  79.4671313
  70.4766993  59.2164913  80.2911313  71.0256993  59.6854913  79.1251313
  70.4116993  59.4274913  79.5381313  63.5646993  54.3164913  85.3721313
  62.7386993  54.1674913  85.6091313  63.5246993  54.3514913  84.5011313
  63.4366993  54.2994913  85.2781313  65.2056993  65.3564913  90.1601313
  64.4106993  65.2924913  90.5111313  65.2766993  66.2034913  89.9651313
  65.0986993  65.4714913  90.1831313  59.1936993  57.4584913  78.6321313
  59.3196993  57.1294913  77.8341313  58.3816993  57.2094913  78.8311313
  59.0926993  57.3734913  78.5441313  67.9506993  64.6114913  81.6761313
  68.0266993  64.9524913  82.4751313  68.1196993  63.7644913  81.7971313
  67.9866993  64.5364913  81.8121313  65.4726993  63.8854913  81.2411313
  65.1746993  63.5704913  81.9981313  66.1676993  64.3584913  81.4761313
  65.5316993  63.9084913  81.3881313  68.3836993  61.2774913  89.6551313
  68.1286993  60.5584913  90.0771313  69.2046993  61.3934913  89.9251313
  68.4676993  61.1884913  89.7571313  66.1026993  65.9314913  86.7011313
  65.4086993  66.3334913  87.0441313  66.7796993  66.3644913  87.0401313
  66.0996993  66.0544913  86.8021313  59.1706993  59.4694913  89.0481313
  59.5456993  60.0884913  88.5611313  59.8446993  58.9954913  89.3331313
  59.3256993  59.4914913  89.0181313  56.9456993  57.9174913  88.3231313
  57.0226993  57.7484913  87.4701313  57.6916993  58.3234913  88.5201313
  57.0666993  57.9524913  88.2261313  59.4996993  55.3274913  90.7341313
  59.4186993  54.4834913  90.9401313  59.1856993  55.3714913  89.9211313
  59.4416993  55.2094913  90.6441313  56.3426993  63.1434913  88.5471313
  56.6626993  63.3624913  87.7661313  56.2426993  62.2784913  88.4921313
  56.3746993  63.0484913  88.4241313  57.7986993  59.0794913  75.1651313
  57.1266993  59.0934913  75.7211313  57.8936993  58.2314913  74.9811313
  57.7136993  58.9564913  75.2201313  66.4796993  55.6934913  82.7551313
  65.7796993  56.2114913  82.6991313  66.5176993  55.3134913  81.9711313
  66.3816993  55.7144913  82.6311313  61.7866993  67.7844913  76.2791313
  62.2276993  67.8644913  77.0271313  60.9816993  67.5684913  76.5371313
  61.7326993  67.7644913  76.4281313  70.0776993  56.2094913  85.5551313
  70.9326993  56.3084913  85.7001313  69.7086993  56.7624913  86.1201313
  70.1496993  56.3064913  85.6601313  61.1056993  62.4354913  89.9321313
  60.7096993  63.2094913  90.0071313  60.6996993  62.0624913  89.2561313
  60.9876993  62.4944913  89.8431313  70.3816993  61.4894913  84.0461313
  71.0476993  62.0304913  84.2061313  70.0366993  61.8004913  83.3071313
  70.4286993  61.6154913  83.9611313  59.1156993  66.8544913  76.8801313
  58.8716993  66.5474913  77.6601313  59.0826993  66.1514913  76.3641313
  59.0746993  66.7054913  76.9191313  61.9346993  65.0994913  75.6231313
  61.1166993  64.8314913  75.7631313  61.9066993  65.9514913  75.8081313
  61.8096993  65.1864913  75.6711313  61.5346993  55.4124913  87.3821313
  60.6706993  55.4964913  87.4621313  61.7546993  54.8984913  88.0511313
  61.4396993  55.3494913  87.4931313  65.6376993  56.1604913  85.7561313
  64.9006993  55.7064913  85.8691313  66.2086993  55.7584913  86.2791313
  65.6126993  56.0334913  85.8501313  68.3696993  67.0084913  87.5441313
  68.5756993  67.3094913  88.3361313  68.3086993  67.7304913  87.0591313
  68.3906993  67.1594913  87.5891313  63.1406993  60.4894913  90.9601313
  62.8186993  59.9134913  90.3901313  62.7816993  61.2444913  90.7141313
  63.0406993  60.5154913  90.8401313  63.9366993  53.7414913  75.5871313
  64.0146993  53.9884913  74.7541313  63.1936993  54.1184913  75.8451313
  63.8386993  53.8334913  75.5021313  58.7546993  55.4954913  88.0301313
  58.4116993  54.7284913  87.7961313  58.0596993  56.0194913  88.0941313
  58.6016993  55.4594913  88.0051313  67.8006993  54.3514913  85.0071313
  68.4706993  54.8954913  85.1341313  67.2976993  54.7754913  84.4341313
  67.8256993  54.4944913  84.9411313  67.1596993  60.1594913  82.5001313
  67.7106993  59.5524913  82.8001313  66.7346993  60.4224913  83.2151313
  67.1786993  60.1084913  82.6491313  57.4076993  58.8094913  81.9861313
  57.0396993  59.1114913  82.7171313  57.9416993  58.1804913  82.2701313
  57.4316993  58.7614913  82.1361313  57.0956993  67.2174913  89.4971313
  56.5216993  67.6334913  90.0061313  57.8286993  67.6824913  89.5921313
  57.1196993  67.3474913  89.5861313  69.1296993  61.9904913  79.0621313
  69.1976993  61.1404913  79.2431313  68.3066993  62.0764913  78.7841313
  69.0176993  61.8774913  79.0481313  63.0486993  62.8814913  78.0001313
  63.1486993  63.0204913  77.1451313  63.8666993  62.8214913  78.2961313
  63.1836993  62.8924913  77.9171313  68.2836993  67.2104913  77.8021313
  68.0326993  67.0824913  78.6281313  67.9666993  66.5154913  77.3811313
  68.1996993  67.0894913  77.8621313  62.1876993  55.8564913  91.1161313
  62.4216993  55.2804913  90.5031313  61.3456993  55.6754913  91.2571313
  62.0976993  55.7444913  91.0461313  65.1696993  65.4184913  77.2321313
  65.8866993  65.0714913  76.8761313  65.1356993  66.2184913  76.8841313
  65.2706993  65.4854913  77.1281313  66.5786993  54.0594913  61.4708903
  66.3336993  54.5474913  60.7908903  67.4416993  53.9864913  61.3708903
  66.6696993  54.1204913  61.3558903  66.3876993  60.9754913  66.1418903
  65.8636993  61.5714913  66.5048903  66.7846993  60.6074913  66.8258903
  66.3686993  61.0094913  66.2968903  56.2566993  65.1154913  61.5978903
  55.8156993  65.2334913  62.3408903  55.9736993  64.3404913  61.3128903
  56.1496993  65.0184913  61.6658903  55.9996993  58.9074913  58.1048903
  55.2216993  59.0694913  57.7448903  56.0386993  58.0364913  58.1268903
  55.8906993  58.8024913  58.0548903  59.1386993  64.1704913  56.7768903
  58.7466993  63.7994913  56.0908903  59.0586993  63.5724913  57.4058903
  59.0686993  64.0274913  56.7678903  69.0586993  62.0424913  62.8178903
  69.1386993  62.0464913  61.9488903  68.4746993  61.4104913  62.9668903
  68.9836993  61.9494913  62.7118903  58.7656993  65.8114913  60.6768903
  59.3736993  65.6414913  61.2798903  58.0146993  65.6714913  61.0978903
  58.7446993  65.7654913  60.8278903  63.0476993  55.1464913  60.6258903
  62.9776993  55.8234913  60.0798903  63.7886993  54.7584913  60.3768903
  63.1466993  55.1894913  60.5078903  56.1966993  67.8504913  67.8528903
  56.3256993  67.5704913  68.6688903  55.5866993  67.3094913  67.5438903
  56.1256993  67.7294913  67.9278903  62.7706993  65.3754913  72.9198903
  62.5346993  65.3724913  73.7598903  62.0226993  65.2274913  72.4958903
  62.6246993  65.3524913  72.9808903  57.6426993  62.3714913  62.0548903
  57.1806993  61.9794913  61.4278903  58.3426993  61.8584913  62.1468903
  57.6776993  62.2384913  61.9758903  62.1506993  57.9814913  67.4018903
  62.8286993  57.9994913  66.8528903  62.1056993  57.1454913  67.6468903
  62.2436993  57.8604913  67.3568903  59.6436993  60.4714913  62.0778903
  60.4606993  60.2844913  62.3208903  59.1666993  59.8574913  62.4738903
  59.6936993  60.3534913  62.1728903  63.8476993  66.4524913  64.6878903
  64.1956993  65.6534913  64.7178903  64.5126993  66.9564913  64.4328903
  63.9976993  66.4084913  64.6548903  63.9046993  65.9014913  60.8988903
  64.2356993  65.2574913  61.3848903  64.1446993  65.6904913  60.0878903
  63.9886993  65.7754913  60.8508903  65.8726993  60.0324913  72.2378903
  65.0246993  59.9334913  72.0598903  65.9016993  60.7774913  72.6918903
  65.7516993  60.1284913  72.2788903  60.2406993  55.5654913  61.3438903
  59.9446993  56.0664913  60.6938903  61.1076993  55.6434913  61.2868903
  60.3246993  55.6514913  61.2398903  70.4306993  52.9924913  71.3518903
  70.2726993  53.7614913  70.9698903  69.6586993  52.7724913  71.6958903
  70.2926993  53.0734913  71.3468903  63.2196993  54.7074913  63.5668903
  63.2926993  55.5674913  63.6958903  63.1816993  54.6324913  62.6988903
  63.2246993  54.8234913  63.4578903  67.8926993  57.6334913  55.8658903
  67.4426993  58.3144913  56.1728903  68.0066993  57.1294913  56.5688903
  67.8436993  57.6594913  56.0148903  56.0986993  60.1324913  65.0678903
  55.8426993  60.9634913  64.9928903  55.4346993  59.7494913  65.4848903
  55.9626993  60.1984913  65.1188903  61.8486993  67.6864913  60.4478903
  61.2696993  67.4114913  61.0398903  62.4726993  67.0774913  60.4728903
  61.8556993  67.5564913  60.5388903  59.1276993  54.9494913  65.5588903
  58.6066993  54.3214913  65.2508903  59.7186993  54.5124913  66.0298903
  59.1386993  54.7914913  65.5828903  62.4336993  57.0824913  74.8568903
  62.5506993  56.6284913  74.1208903  62.7216993  57.8804913  74.6538903
  62.4936993  57.1334913  74.7178903  58.1666993  56.6794913  73.8408903
  57.3886993  56.2894913  73.7688903  58.6576993  56.2674913  73.2498903
  58.1236993  56.5604913  73.7428903  58.3716993  66.9994913  64.3988903
  58.7946993  66.6434913  63.7248903  58.6956993  66.5774913  65.0908903
  58.4816993  66.8844913  64.4018903  64.8156993  54.3224913  73.0088903
  64.9936993  53.5134913  72.7338903  64.6726993  54.7634913  72.2698903
  64.8206993  54.2684913  72.8588903  65.4096993  59.2484913  61.7818903
  65.6966993  59.0164913  60.9918903  66.1416993  59.3274913  62.2508903
  65.5596993  59.2254913  61.7348903  66.1316993  59.5874913  56.9028903
  66.4126993  60.3754913  57.1518903  65.3556993  59.7524913  56.5398903
  66.0586993  59.7284913  56.8858903  55.5146993  57.2274913  71.4268903
  55.5106993  57.8144913  72.0728903  56.1086993  57.5394913  70.8698903
  55.6016993  57.3604913  71.4398903  67.8526993  67.5614913  71.9688903
  67.8186993  67.9434913  72.7528903  68.7066993  67.5194913  71.7978903
  67.9736993  67.6114913  72.0598903  68.4976993  55.6544913  57.7728903
  69.0376993  54.9724913  57.8488903  68.5596993  56.0524913  58.5468903
  68.5866993  55.6124913  57.8988903  56.4516993  56.8224913  60.3418903
  56.3376993  55.9584913  60.3728903  55.9766993  57.1164913  61.0118903
  56.3646993  56.7384913  60.4448903  65.7556993  58.0304913  59.0868903
  65.2476993  57.3684913  58.8328903  65.8076993  58.5344913  58.3768903
  65.6886993  58.0074913  58.9448903  65.7556993  54.9714913  58.9778903
  65.3006993  54.5694913  58.3518903  66.5286993  55.1264913  58.6028903
  65.8026993  54.9354913  58.8298903  64.3536993  57.3384913  63.4998903
  64.4276993  57.9064913  62.8418903  64.4746993  57.8304913  64.2098903
  64.3816993  57.4954913  63.5078903  69.5786993  67.1734913  61.9118903
  70.2796993  66.6914913  62.1008903  68.9186993  66.6044913  61.9568903
  69.5846993  67.0184913  61.9458903  58.9616993  53.1614913  61.8478903
  59.4976993  53.8494913  61.8378903  58.9646993  52.8874913  61.0198903
  59.0406993  53.2224913  61.7238903  61.9176993  63.5944913  65.8728903
  62.0896993  63.3844913  66.7018903  61.2626993  63.0604913  65.6568903
  61.8466993  63.4844913  65.9638903  68.1456993  57.5084913  69.3878903
  68.0506993  57.8274913  70.1938903  67.5526993  56.8694913  69.3498903
  68.0436993  57.4604913  69.5018903  62.6676993  63.5324913  68.4628903
  62.7206993  64.3794913  68.6648903  62.3826993  63.1624913  69.1998903
  62.6336993  63.6024913  68.6008903  68.8446993  64.2274913  67.5928903
  68.3306993  63.8154913  68.1638903  68.7186993  65.0714913  67.7738903
  68.7506993  64.2914913  67.7038903  69.4016993  53.4524913  62.2238903
  69.4506993  53.1344913  63.0348903  69.7246993  52.8084913  61.7308903
  69.4566993  53.3104913  62.2708903  59.4096993  56.9714913  63.5018903
  59.6816993  56.5414913  62.7938903  59.2336993  56.3354913  64.0728903
  59.4236993  56.8144913  63.4818903  59.2336993  64.3984913  63.0508903
  60.0846993  64.3184913  62.8778903  58.8766993  63.7164913  62.6388903
  59.3066993  64.2854913  62.9638903  57.5506993  58.0734913  66.5838903
  58.3936993  58.2934913  66.5408903  57.1616993  58.6464913  66.0528903
  57.6176993  58.1904913  66.4988903  69.9926993  61.2034913  57.3048903
  69.7726993  61.9344913  56.8828903  69.5446993  61.2544913  58.0518903
  69.8936993  61.3184913  57.3528903  61.6016993  64.4054913  61.2858903
  62.3146993  64.9004913  61.3758903  61.8236993  63.8384913  60.6598903
  61.7396993  64.3944913  61.2068903  55.7576993  66.0484913  64.6058903
  55.0906993  66.5364913  64.8818903  56.4376993  66.5934913  64.6348903
  55.7596993  66.2004913  64.6508903  63.4046993  59.7584913  74.7018903
  62.9206993  60.3354913  75.1438903  63.3766993  60.0534913  73.8808903
  63.3286993  59.8874913  74.6458903  55.8236993  62.7324913  59.7088903
  55.6386993  61.8934913  59.8608903  56.4826993  62.6964913  59.1388903
  55.8936993  62.6034913  59.6468903  55.9956993  66.8964913  59.2838903
  56.5476993  67.4654913  59.6478903  55.7636993  66.3814913  59.9488903
  56.0426993  66.9044913  59.4358903  60.1996993  65.8964913  66.3728903
  60.6666993  66.1854913  67.0508903  60.7716993  65.4184913  65.9188903
  60.3536993  65.8684913  66.4058903  68.6356993  57.9104913  64.1098903
  68.9796993  58.0624913  64.8968903  68.1826993  57.1724913  64.2228903
  68.6196993  57.8234913  64.2428903  55.8256993  65.3454913  56.9118903
  56.5816993  64.9134913  56.9698903  55.8406993  65.8774913  57.6028903
  55.9396993  65.3604913  57.0228903  56.7656993  63.5664913  64.9168903
  57.1966993  63.4374913  64.1698903  56.5606993  64.4144913  64.8908903
  56.7986993  63.6724913  64.8028903  63.1116993  57.1304913  58.5668903
  63.1096993  57.0134913  57.7018903  62.9306993  57.9784913  58.6588903
  63.0846993  57.2384913  58.4528903  60.8496993  67.0824913  63.1988903
  60.9756993  67.9254913  63.3858903  61.5176993  66.6834913  63.5948903
  60.9676993  67.1484913  63.2848903  58.9796993  60.5654913  73.0608903
  58.4436993  60.0594913  73.5288903  58.9996993  60.1754913  72.2808903
  58.9026993  60.4324913  73.0148903  59.4646993  59.9624913  58.2008903
  59.3366993  59.5144913  58.9388903  58.8826993  59.6204913  57.6488903
  59.3596993  59.8454913  58.2288903  59.6316993  61.7924913  64.7998903
  58.8506993  61.7334913  64.4168903  59.7036993  61.0404913  65.2368903
  59.5266993  61.6734913  64.8078903  60.0616993  61.5294913  68.2678903
  60.0866993  60.8544913  67.7168903  59.4156993  62.0254913  67.9558903
  59.9706993  61.5024913  68.1408903  69.9566993  59.2424913  66.6638903
  69.2946993  59.5704913  67.1268903  70.1436993  59.8764913  66.0948903
  69.8866993  59.3844913  66.6478903  66.6016993  55.1484913  70.0928903
  66.7506993  54.3234913  69.8498903  66.9806993  55.2034913  70.8768903
  66.6796993  55.0344913  70.1728903  68.1496993  57.2114913  60.1748903
  68.6396993  57.9284913  60.0978903  67.3596993  57.4724913  59.9118903
  68.1056993  57.3554913  60.1248903  57.8606993  62.8844913  73.8268903
  57.8236993  63.3854913  73.1128903  58.1916993  62.1324913  73.5318903
  57.9036993  62.8464913  73.6778903  69.4636993  65.0894913  72.0848903
  69.9476993  65.8074913  72.1828903  69.8576993  64.6624913  71.4338903
  69.5936993  65.1324913  72.0028903  63.7596993  67.9344913  73.2618903
  64.1136993  67.7564913  74.0388903  63.3236993  67.2054913  73.0628903
  63.7476993  67.8004913  73.3478903  64.7316993  58.6814913  65.8998903
  65.2116993  59.3804913  66.1078903  65.1046993  58.0344913  66.3508903
  64.8576993  58.6894913  65.9968903  66.9206993  61.8504913  58.1738903
  66.9126993  62.5724913  57.6838903  66.2816993  61.9854913  58.7508903
  66.8256993  61.9774913  58.1868903  67.9506993  65.6374913  65.3988903
  67.1536993  65.8614913  65.6728903  68.2086993  65.0434913  65.9838903
  67.8706993  65.5824913  65.5258903  61.5136993  54.1924913  57.8348903
  61.6106993  54.0854913  58.6958903  60.8056993  54.6984913  57.7698903
  61.4236993  54.2514913  57.9528903  58.6356993  62.4994913  59.0778903
  58.9596993  61.7204913  58.8558903  59.2816993  62.8674913  59.5328903
  58.7786993  62.4384913  59.1118903  66.9416993  63.4414913  69.8448903
  66.7866993  64.0514913  70.4488903  67.4756993  62.8834913  70.2508903
  66.9976993  63.4494913  69.9938903  55.6326993  54.1604913  60.0458903
  55.7616993  53.4524913  59.5538903  55.2656993  53.8424913  60.7708903
  55.5976993  54.0084913  60.0808903  65.3256993  61.8414913  60.5028903
  65.3846993  62.4914913  61.0818903  65.1366993  61.1454913  60.9938903
  65.3066993  61.8344913  60.6608903  70.5516993  66.1704913  66.3718903
  70.0726993  66.4684913  65.7058903  70.1956993  65.3944913  66.5498903
  70.4286993  66.0994913  66.2998903  59.8216993  56.3584913  57.0148903
  59.3106993  56.4114913  56.3088903  60.6056993  56.5984913  56.7188903
  59.8616993  56.4014913  56.8668903  64.5486993  63.8884913  64.9338903
  63.7016993  63.6944913  65.0148903  64.8726993  63.7234913  65.7268903
  64.4706993  63.8354913  65.0628903  58.3966993  63.5814913  67.2498903
  59.1186993  64.0694913  67.2128903  58.1266993  63.5514913  66.4208903
  58.4636993  63.6494913  67.1218903  61.6266993  58.7524913  63.9848903
  62.4726993  58.5624913  64.0828903  61.2566993  57.9754913  63.8468903
  61.6966993  58.6094913  63.9788903  56.4476993  60.0904913  60.6398903
  56.9366993  59.7984913  61.3008903  56.5766993  59.4974913  60.0128903
  56.5386993  59.9594913  60.6448903  60.9726993  61.5244913  56.1258903
  60.3626993  61.1194913  56.5998903  60.5866993  61.6424913  55.3528903
  60.8256993  61.4814913  56.0818903  57.7916993  64.6334913  71.5278903
  57.3706993  64.1154913  70.9668903  57.4396993  65.4194913  71.3848903
  57.6776993  64.6734913  71.4238903  62.4276993  59.9854913  58.8358903
  62.6996993  60.8114913  58.9028903  61.5646993  60.0604913  58.7398903
  62.3406993  60.1184913  58.8308903  70.4006993  57.1074913  73.4678903
  69.8756993  57.5664913  73.9918903  70.0396993  56.3124913  73.4618903
  70.2696993  57.0574913  73.5438903  55.9076993  55.9554913  65.3718903
  55.9516993  56.2994913  64.5708903  56.6626993  56.1924913  65.7388903
  56.0256993  56.0414913  65.3078903  68.8926993  60.6764913  73.5438903
  68.9656993  60.7804913  74.4068903  68.2586993  61.2344913  73.3228903
  68.8096993  60.7744913  73.6388903  70.4746993  67.4194913  57.4388903
  70.8086993  66.6134913  57.4738903  69.7196993  67.3474913  57.8688903
  70.4126993  67.2894913  57.5078903  70.9566993  59.2534913  63.0978903
  70.2116993  58.9304913  63.4158903  70.9586993  60.0794913  63.3778903
  70.8466993  59.3274913  63.1858903  67.8486993  65.2944913  56.8418903
  68.5326993  64.7804913  56.6728903  67.4316993  65.3404913  56.0768903
  67.8876993  65.2254913  56.7038903  62.5306993  66.4444913  68.1458903
  62.2326993  67.0364913  68.7128903  62.5856993  66.8864913  67.3968903
  62.4946993  66.5974913  68.1188903  60.5096993  65.3944913  71.5438903
  59.7036993  65.1044913  71.7108903  60.4206993  66.2624913  71.5498903
  60.3776993  65.4794913  71.5688903  69.8686993  55.5834913  70.5588903
  70.6126993  56.0354913  70.4958903  69.3026993  56.0534913  70.0898903
  69.8956993  55.7204913  70.4808903  65.0466993  62.8674913  67.6368903
  65.5226993  63.2414913  68.2648903  64.2236993  63.0014913  67.8958903
  64.9956993  62.9424913  67.7678903  61.7566993  58.4704913  70.3778903
  61.9176993  57.7264913  70.8048903  61.7116993  58.2214913  69.5428903
  61.7736993  58.3234913  70.3178903  63.5086993  54.2784913  70.2578903
  64.2136993  54.5984913  69.8558903  63.7496993  53.4714913  70.4848903
  63.6476993  54.2064913  70.2318903  66.8026993  65.1224913  73.2428903
  67.5596993  65.4084913  72.9168903  66.2556993  65.1744913  72.5648903
  66.8336993  65.1724913  73.0938903  64.0876993  63.2644913  56.1688903
  63.2826993  63.0874913  55.8838903  64.0546993  64.1154913  56.3608903
  63.9636993  63.3634913  56.1558903  60.0176993  59.3314913  66.3188903
  60.4576993  59.2284913  65.5728903  60.5626993  59.0184913  66.9238903
  60.1626993  59.2704913  66.2978903  68.0336993  58.4334913  71.9108903
  67.3856993  58.9034913  72.2588903  68.5986993  58.3444913  72.5698903
  68.0216993  58.4894913  72.0598903  67.7216993  59.9704913  68.2088903
  68.0236993  60.3904913  68.9118903  67.7576993  59.1304913  68.4408903
  67.7716993  59.9084913  68.3468903  70.2696993  59.4174913  60.4608903
  70.4766993  59.2164913  61.2848903  71.0256993  59.6854913  60.1188903
  70.4116993  59.4274913  60.5318903  63.5646993  54.3164913  66.3658903
  62.7386993  54.1674913  66.6028903  63.5246993  54.3514913  65.4948903
  63.4366993  54.2994913  66.2718903  65.2056993  65.3564913  71.1538903
  64.4106993  65.2924913  71.5048903  65.2766993  66.2034913  70.9588903
  65.0986993  65.4714913  71.1768903  56.1296993  54.7144913  72.4008903
  55.9896993  55.5094913  72.0698903  55.3436993  54.4714913  72.6898903
  55.9926993  54.7964913  72.3948903  59.1936993  57.4584913  59.6258903
  59.3196993  57.1294913  58.8278903  58.3816993  57.2094913  59.8248903
  59.0926993  57.3734913  59.5378903  67.9506993  64.6114913  62.6698903
  68.0266993  64.9524913  63.4688903  68.1196993  63.7644913  62.7908903
  67.9866993  64.5364913  62.8058903  65.4726993  63.8854913  62.2348903
  65.1746993  63.5704913  62.9918903  66.1676993  64.3584913  62.4698903
  65.5316993  63.9084913  62.3818903  68.3836993  61.2774913  70.6488903
  68.1286993  60.5584913  71.0708903  69.2046993  61.3934913  70.9188903
  68.4676993  61.1884913  70.7508903  66.3176993  62.4674913  73.8358903
  66.6406993  63.1534913  73.4038903  65.6136993  62.7904913  74.2378903
  66.2606993  62.6164913  73.8308903  66.1026993  65.9314913  67.6948903
  65.4086993  66.3334913  68.0378903  66.7796993  66.3644913  68.0338903
  66.0996993  66.0544913  67.7958903  59.1706993  59.4694913  70.0418903
  59.5456993  60.0884913  69.5548903  59.8446993  58.9954913  70.3268903
  59.3256993  59.4914913  70.0118903  56.9456993  57.9174913  69.3168903
  57.0226993  57.7484913  68.4638903  57.6916993  58.3234913  69.5138903
  57.0666993  57.9524913  69.2198903  59.4996993  55.3274913  71.7278903
  59.4186993  54.4834913  71.9338903  59.1856993  55.3714913  70.9148903
  59.4416993  55.2094913  71.6378903  56.3426993  63.1434913  69.5408903
  56.6626993  63.3624913  68.7598903  56.2426993  62.2784913  69.4858903
  56.3746993  63.0484913  69.4178903  57.7986993  59.0794913  56.1588903
  57.1266993  59.0934913  56.7148903  57.8936993  58.2314913  55.9748903
  57.7136993  58.9564913  56.2138903  67.4856993  55.5034913  72.8948903
  67.5776993  56.2154913  73.3888903  66.8486993  55.0584913  73.2918903
  67.4046993  55.5424913  73.0268903  66.4796993  55.6934913  63.7488903
  65.7796993  56.2114913  63.6928903  66.5176993  55.3134913  62.9648903
  66.3816993  55.7144913  63.6248903  61.7866993  67.7844913  57.2728903
  62.2276993  67.8644913  58.0208903  60.9816993  67.5684913  57.5308903
  61.7326993  67.7644913  57.4218903  70.0776993  56.2094913  66.5488903
  70.9326993  56.3084913  66.6938903  69.7086993  56.7624913  67.1138903
  70.1496993  56.3064913  66.6538903  61.1056993  62.4354913  70.9258903
  60.7096993  63.2094913  71.0008903  60.6996993  62.0624913  70.2498903
  60.9876993  62.4944913  70.8368903  70.3816993  61.4894913  65.0398903
  71.0476993  62.0304913  65.1998903  70.0366993  61.8004913  64.3008903
  70.4286993  61.6154913  64.9548903  59.1156993  66.8544913  57.8738903
  58.8716993  66.5474913  58.6538903  59.0826993  66.1514913  57.3578903
  59.0746993  66.7054913  57.9128903  61.9346993  65.0994913  56.6168903
  61.1166993  64.8314913  56.7568903  61.9066993  65.9514913  56.8018903
  61.8096993  65.1864913  56.6648903  61.5346993  55.4124913  68.3758903
  60.6706993  55.4964913  68.4558903  61.7546993  54.8984913  69.0448903
  61.4396993  55.3494913  68.4868903  65.6376993  56.1604913  66.7498903
  64.9006993  55.7064913  66.8628903  66.2086993  55.7584913  67.2728903
  65.6126993  56.0334913  66.8438903  68.3696993  67.0084913  68.5378903
  68.5756993  67.3094913  69.3298903  68.3086993  67.7304913  68.0528903
  68.3906993  67.1594913  68.5828903  63.1406993  60.4894913  71.9538903
  62.8186993  59.9134913  71.3838903  62.7816993  61.2444913  71.7078903
  63.0406993  60.5154913  71.8338903  63.9366993  53.7414913  56.5808903
  64.0146993  53.9884913  55.7478903  63.1936993  54.1184913  56.8388903
  63.8386993  53.8334913  56.4958903  58.7546993  55.4954913  69.0238903
  58.4116993  54.7284913  68.7898903  58.0596993  56.0194913  69.0878903
  58.6016993  55.4594913  68.9988903  67.8006993  54.3514913  66.0008903
  68.4706993  54.8954913  66.1278903  67.2976993  54.7754913  65.4278903
  67.8256993  54.4944913  65.9348903  67.1596993  60.1594913  63.4938903
  67.7106993  59.5524913  63.7938903  66.7346993  60.4224913  64.2088903
  67.1786993  60.1084913  63.6428903  57.4076993  58.8094913  62.9798903
  57.0396993  59.1114913  63.7108903  57.9416993  58.1804913  63.2638903
  57.4316993  58.7614913  63.1298903  57.0956993  67.2174913  70.4908903
  56.5216993  67.6334913  70.9998903  57.8286993  67.6824913  70.5858903
  57.1196993  67.3474913  70.5798903  69.1296993  61.9904913  60.0558903
  69.1976993  61.1404913  60.2368903  68.3066993  62.0764913  59.7778903
  69.0176993  61.8774913  60.0418903  63.0486993  62.8814913  58.9938903
  63.1486993  63.0204913  58.1388903  63.8666993  62.8214913  59.2898903
  63.1836993  62.8924913  58.9108903  68.2836993  67.2104913  58.7958903
  68.0326993  67.0824913  59.6218903  67.9666993  66.5154913  58.3748903
  68.1996993  67.0894913  58.8558903  62.1876993  55.8564913  72.1098903
  62.4216993  55.2804913  71.4968903  61.3456993  55.6754913  72.2508903
  62.0976993  55.7444913  72.0398903  69.8146993  63.4744913  74.5618903
  70.6856993  63.4384913  74.5258903  69.5956993  63.8944913  73.8298903
  69.9116993  63.5304913  74.4488903  65.1696993  65.4184913  58.2258903
  65.8866993  65.0714913  57.8698903  65.1356993  66.2184913  57.8778903
  65.2706993  65.4854913  58.1218903  66.5786993  54.0594913  42.4646493
  66.3336993  54.5474913  41.7846493  67.4416993  53.9864913  42.3646493
  66.6696993  54.1204913  42.3496493  66.3876993  60.9754913  47.1356493
  65.8636993  61.5714913  47.4986493  66.7846993  60.6074913  47.8196493
  66.3686993  61.0094913  47.2906493  56.2566993  65.1154913  42.5916493
  55.8156993  65.2334913  43.3346493  55.9736993  64.3404913  42.3066493
  56.1496993  65.0184913  42.6596493  55.9996993  58.9074913  39.0986493
  55.2216993  59.0694913  38.7386493  56.0386993  58.0364913  39.1206493
  55.8906993  58.8024913  39.0486493  59.1386993  64.1704913  37.7706493
  58.7466993  63.7994913  37.0846493  59.0586993  63.5724913  38.3996493
  59.0686993  64.0274913  37.7616493  69.0586993  62.0424913  43.8116493
  69.1386993  62.0464913  42.9426493  68.4746993  61.4104913  43.9606493
  68.9836993  61.9494913  43.7056493  58.7656993  65.8114913  41.6706493
  59.3736993  65.6414913  42.2736493  58.0146993  65.6714913  42.0916493
  58.7446993  65.7654913  41.8216493  63.0476993  55.1464913  41.6196493
  62.9776993  55.8234913  41.0736493  63.7886993  54.7584913  41.3706493
  63.1466993  55.1894913  41.5016493  56.1966993  67.8504913  48.8466493
  56.3256993  67.5704913  49.6626493  55.5866993  67.3094913  48.5376493
  56.1256993  67.7294913  48.9216493  62.7706993  65.3754913  53.9136493
  62.5346993  65.3724913  54.7536493  62.0226993  65.2274913  53.4896493
  62.6246993  65.3524913  53.9746493  57.6426993  62.3714913  43.0486493
  57.1806993  61.9794913  42.4216493  58.3426993  61.8584913  43.1406493
  57.6776993  62.2384913  42.9696493  62.1506993  57.9814913  48.3956493
  62.8286993  57.9994913  47.8466493  62.1056993  57.1454913  48.6406493
  62.2436993  57.8604913  48.3506493  59.6436993  60.4714913  43.0716493
  60.4606993  60.2844913  43.3146493  59.1666993  59.8574913  43.4676493
  59.6936993  60.3534913  43.1666493  63.8476993  66.4524913  45.6816493
  64.1956993  65.6534913  45.7116493  64.5126993  66.9564913  45.4266493
  63.9976993  66.4084913  45.6486493  63.9046993  65.9014913  41.8926493
  64.2356993  65.2574913  42.3786493  64.1446993  65.6904913  41.0816493
  63.9886993  65.7754913  41.8446493  65.8726993  60.0324913  53.2316493
  65.0246993  59.9334913  53.0536493  65.9016993  60.7774913  53.6856493
  65.7516993  60.1284913  53.2726493  60.2406993  55.5654913  42.3376493
  59.9446993  56.0664913  41.6876493  61.1076993  55.6434913  42.2806493
  60.3246993  55.6514913  42.2336493  70.4306993  52.9924913  52.3456493
  70.2726993  53.7614913  51.9636493  69.6586993  52.7724913  52.6896493
  70.2926993  53.0734913  52.3406493  63.2196993  54.7074913  44.5606493
  63.2926993  55.5674913  44.6896493  63.1816993  54.6324913  43.6926493
  63.2246993  54.8234913  44.4516493  67.8926993  57.6334913  36.8596493
  67.4426993  58.3144913  37.1666493  68.0066993  57.1294913  37.5626493
  67.8436993  57.6594913  37.0086493  56.0986993  60.1324913  46.0616493
  55.8426993  60.9634913  45.9866493  55.4346993  59.7494913  46.4786493
  55.9626993  60.1984913  46.1126493  61.8486993  67.6864913  41.4416493
  61.2696993  67.4114913  42.0336493  62.4726993  67.0774913  41.4666493
  61.8556993  67.5564913  41.5326493  59.1276993  54.9494913  46.5526493
  58.6066993  54.3214913  46.2446493  59.7186993  54.5124913  47.0236493
  59.1386993  54.7914913  46.5766493  62.4336993  57.0824913  55.8506493
  62.5506993  56.6284913  55.1146493  62.7216993  57.8804913  55.6476493
  62.4936993  57.1334913  55.7116493  58.1666993  56.6794913  54.8346493
  57.3886993  56.2894913  54.7626493  58.6576993  56.2674913  54.2436493
  58.1236993  56.5604913  54.7366493  58.3716993  66.9994913  45.3926493
  58.7946993  66.6434913  44.7186493  58.6956993  66.5774913  46.0846493
  58.4816993  66.8844913  45.3956493  64.8156993  54.3224913  54.0026493
  64.9936993  53.5134913  53.7276493  64.6726993  54.7634913  53.2636493
  64.8206993  54.2684913  53.8526493  65.4096993  59.2484913  42.7756493
  65.6966993  59.0164913  41.9856493  66.1416993  59.3274913  43.2446493
  65.5596993  59.2254913  42.7286493  66.1316993  59.5874913  37.8966493
  66.4126993  60.3754913  38.1456493  65.3556993  59.7524913  37.5336493
  66.0586993  59.7284913  37.8796493  55.5146993  57.2274913  52.4206493
  55.5106993  57.8144913  53.0666493  56.1086993  57.5394913  51.8636493
  55.6016993  57.3604913  52.4336493  67.8526993  67.5614913  52.9626493
  67.8186993  67.9434913  53.7466493  68.7066993  67.5194913  52.7916493
  67.9736993  67.6114913  53.0536493  68.4976993  55.6544913  38.7666493
  69.0376993  54.9724913  38.8426493  68.5596993  56.0524913  39.5406493
  68.5866993  55.6124913  38.8926493  56.4516993  56.8224913  41.3356493
  56.3376993  55.9584913  41.3666493  55.9766993  57.1164913  42.0056493
  56.3646993  56.7384913  41.4386493  65.7556993  58.0304913  40.0806493
  65.2476993  57.3684913  39.8266493  65.8076993  58.5344913  39.3706493
  65.6886993  58.0074913  39.9386493  65.7556993  54.9714913  39.9716493
  65.3006993  54.5694913  39.3456493  66.5286993  55.1264913  39.5966493
  65.8026993  54.9354913  39.8236493  64.3536993  57.3384913  44.4936493
  64.4276993  57.9064913  43.8356493  64.4746993  57.8304913  45.2036493
  64.3816993  57.4954913  44.5016493  69.5786993  67.1734913  42.9056493
  70.2796993  66.6914913  43.0946493  68.9186993  66.6044913  42.9506493
  69.5846993  67.0184913  42.9396493  58.9616993  53.1614913  42.8416493
  59.4976993  53.8494913  42.8316493  58.9646993  52.8874913  42.0136493
  59.0406993  53.2224913  42.7176493  61.9176993  63.5944913  46.8666493
  62.0896993  63.3844913  47.6956493  61.2626993  63.0604913  46.6506493
  61.8466993  63.4844913  46.9576493  68.1456993  57.5084913  50.3816493
  68.0506993  57.8274913  51.1876493  67.5526993  56.8694913  50.3436493
  68.0436993  57.4604913  50.4956493  62.6676993  63.5324913  49.4566493
  62.7206993  64.3794913  49.6586493  62.3826993  63.1624913  50.1936493
  62.6336993  63.6024913  49.5946493  68.8446993  64.2274913  48.5866493
  68.3306993  63.8154913  49.1576493  68.7186993  65.0714913  48.7676493
  68.7506993  64.2914913  48.6976493  69.4016993  53.4524913  43.2176493
  69.4506993  53.1344913  44.0286493  69.7246993  52.8084913  42.7246493
  69.4566993  53.3104913  43.2646493  59.4096993  56.9714913  44.4956493
  59.6816993  56.5414913  43.7876493  59.2336993  56.3354913  45.0666493
  59.4236993  56.8144913  44.4756493  59.2336993  64.3984913  44.0446493
  60.0846993  64.3184913  43.8716493  58.8766993  63.7164913  43.6326493
  59.3066993  64.2854913  43.9576493  57.5506993  58.0734913  47.5776493
  58.3936993  58.2934913  47.5346493  57.1616993  58.6464913  47.0466493
  57.6176993  58.1904913  47.4926493  69.9926993  61.2034913  38.2986493
  69.7726993  61.9344913  37.8766493  69.5446993  61.2544913  39.0456493
  69.8936993  61.3184913  38.3466493  61.6016993  64.4054913  42.2796493
  62.3146993  64.9004913  42.3696493  61.8236993  63.8384913  41.6536493
  61.7396993  64.3944913  42.2006493  55.7576993  66.0484913  45.5996493
  55.0906993  66.5364913  45.8756493  56.4376993  66.5934913  45.6286493
  55.7596993  66.2004913  45.6446493  63.4046993  59.7584913  55.6956493
  62.9206993  60.3354913  56.1376493  63.3766993  60.0534913  54.8746493
  63.3286993  59.8874913  55.6396493  55.8236993  62.7324913  40.7026493
  55.6386993  61.8934913  40.8546493  56.4826993  62.6964913  40.1326493
  55.8936993  62.6034913  40.6406493  55.9956993  66.8964913  40.2776493
  56.5476993  67.4654913  40.6416493  55.7636993  66.3814913  40.9426493
  56.0426993  66.9044913  40.4296493  60.1996993  65.8964913  47.3666493
  60.6666993  66.1854913  48.0446493  60.7716993  65.4184913  46.9126493
  60.3536993  65.8684913  47.3996493  68.6356993  57.9104913  45.1036493
  68.9796993  58.0624913  45.8906493  68.1826993  57.1724913  45.2166493
  68.6196993  57.8234913  45.2366493  55.8256993  65.3454913  37.9056493
  56.5816993  64.9134913  37.9636493  55.8406993  65.8774913  38.5966493
  55.9396993  65.3604913  38.0166493  56.7656993  63.5664913  45.9106493
  57.1966993  63.4374913  45.1636493  56.5606993  64.4144913  45.8846493
  56.7986993  63.6724913  45.7966493  63.1116993  57.1304913  39.5606493
  63.1096993  57.0134913  38.6956493  62.9306993  57.9784913  39.6526493
  63.0846993  57.2384913  39.4466493  60.8496993  67.0824913  44.1926493
  60.9756993  67.9254913  44.3796493  61.5176993  66.6834913  44.5886493
  60.9676993  67.1484913  44.2786493  58.9796993  60.5654913  54.0546493
  58.4436993  60.0594913  54.5226493  58.9996993  60.1754913  53.2746493
  58.9026993  60.4324913  54.0086493  59.4646993  59.9624913  39.1946493
  59.3366993  59.5144913  39.9326493  58.8826993  59.6204913  38.6426493
  59.3596993  59.8454913  39.2226493  59.6316993  61.7924913  45.7936493
  58.8506993  61.7334913  45.4106493  59.7036993  61.0404913  46.2306493
  59.5266993  61.6734913  45.8016493  60.0616993  61.5294913  49.2616493
  60.0866993  60.8544913  48.7106493  59.4156993  62.0254913  48.9496493
  59.9706993  61.5024913  49.1346493  69.9566993  59.2424913  47.6576493
  69.2946993  59.5704913  48.1206493  70.1436993  59.8764913  47.0886493
  69.8866993  59.3844913  47.6416493  66.6016993  55.1484913  51.0866493
  66.7506993  54.3234913  50.8436493  66.9806993  55.2034913  51.8706493
  66.6796993  55.0344913  51.1666493  68.1496993  57.2114913  41.1686493
  68.6396993  57.9284913  41.0916493  67.3596993  57.4724913  40.9056493
  68.1056993  57.3554913  41.1186493  57.8606993  62.8844913  54.8206493
  57.8236993  63.3854913  54.1066493  58.1916993  62.1324913  54.5256493
  57.9036993  62.8464913  54.6716493  69.4636993  65.0894913  53.0786493
  69.9476993  65.8074913  53.1766493  69.8576993  64.6624913  52.4276493
  69.5936993  65.1324913  52.9966493  63.7596993  67.9344913  54.2556493
  64.1136993  67.7564913  55.0326493  63.3236993  67.2054913  54.0566493
  63.7476993  67.8004913  54.3416493  64.7316993  58.6814913  46.8936493
  65.2116993  59.3804913  47.1016493  65.1046993  58.0344913  47.3446493
  64.8576993  58.6894913  46.9906493  66.9206993  61.8504913  39.1676493
  66.9126993  62.5724913  38.6776493  66.2816993  61.9854913  39.7446493
  66.8256993  61.9774913  39.1806493  67.9506993  65.6374913  46.3926493
  67.1536993  65.8614913  46.6666493  68.2086993  65.0434913  46.9776493
  67.8706993  65.5824913  46.5196493  61.5136993  54.1924913  38.8286493
  61.6106993  54.0854913  39.6896493  60.8056993  54.6984913  38.7636493
  61.4236993  54.2514913  38.9466493  58.6356993  62.4994913  40.0716493
  58.9596993  61.7204913  39.8496493  59.2816993  62.8674913  40.5266493
  58.7786993  62.4384913  40.1056493  66.9416993  63.4414913  50.8386493
  66.7866993  64.0514913  51.4426493  67.4756993  62.8834913  51.2446493
  66.9976993  63.4494913  50.9876493  55.6326993  54.1604913  41.0396493
  55.7616993  53.4524913  40.5476493  55.2656993  53.8424913  41.7646493
  55.5976993  54.0084913  41.0746493  65.3256993  61.8414913  41.4966493
  65.3846993  62.4914913  42.0756493  65.1366993  61.1454913  41.9876493
  65.3066993  61.8344913  41.6546493  70.5516993  66.1704913  47.3656493
  70.0726993  66.4684913  46.6996493  70.1956993  65.3944913  47.5436493
  70.4286993  66.0994913  47.2936493  59.8216993  56.3584913  38.0086493
  59.3106993  56.4114913  37.3026493  60.6056993  56.5984913  37.7126493
  59.8616993  56.4014913  37.8606493  64.5486993  63.8884913  45.9276493
  63.7016993  63.6944913  46.0086493  64.8726993  63.7234913  46.7206493
  64.4706993  63.8354913  46.0566493  58.3966993  63.5814913  48.2436493
  59.1186993  64.0694913  48.2066493  58.1266993  63.5514913  47.4146493
  58.4636993  63.6494913  48.1156493  61.6266993  58.7524913  44.9786493
  62.4726993  58.5624913  45.0766493  61.2566993  57.9754913  44.8406493
  61.6966993  58.6094913  44.9726493  56.4476993  60.0904913  41.6336493
  56.9366993  59.7984913  42.2946493  56.5766993  59.4974913  41.0066493
  56.5386993  59.9594913  41.6386493  60.9726993  61.5244913  37.1196493
  60.3626993  61.1194913  37.5936493  60.5866993  61.6424913  36.3466493
  60.8256993  61.4814913  37.0756493  57.7916993  64.6334913  52.5216493
  57.3706993  64.1154913  51.9606493  57.4396993  65.4194913  52.3786493
  57.6776993  64.6734913  52.4176493  62.4276993  59.9854913  39.8296493
  62.6996993  60.8114913  39.8966493  61.5646993  60.0604913  39.7336493
  62.3406993  60.1184913  39.8246493  70.4006993  57.1074913  54.4616493
  69.8756993  57.5664913  54.9856493  70.0396993  56.3124913  54.4556493
  70.2696993  57.0574913  54.5376493  55.9076993  55.9554913  46.3656493
  55.9516993  56.2994913  45.5646493  56.6626993  56.1924913  46.7326493
  56.0256993  56.0414913  46.3016493  68.8926993  60.6764913  54.5376493
  68.9656993  60.7804913  55.4006493  68.2586993  61.2344913  54.3166493
  68.8096993  60.7744913  54.6326493  70.4746993  67.4194913  38.4326493
  70.8086993  66.6134913  38.4676493  69.7196993  67.3474913  38.8626493
  70.4126993  67.2894913  38.5016493  70.9566993  59.2534913  44.0916493
  70.2116993  58.9304913  44.4096493  70.9586993  60.0794913  44.3716493
  70.8466993  59.3274913  44.1796493  67.8486993  65.2944913  37.8356493
  68.5326993  64.7804913  37.6666493  67.4316993  65.3404913  37.0706493
  67.8876993  65.2254913  37.6976493  62.5306993  66.4444913  49.1396493
  62.2326993  67.0364913  49.7066493  62.5856993  66.8864913  48.3906493
  62.4946993  66.5974913  49.1126493  60.5096993  65.3944913  52.5376493
  59.7036993  65.1044913  52.7046493  60.4206993  66.2624913  52.5436493
  60.3776993  65.4794913  52.5626493  69.8686993  55.5834913  51.5526493
  70.6126993  56.0354913  51.4896493  69.3026993  56.0534913  51.0836493
  69.8956993  55.7204913  51.4746493  65.0466993  62.8674913  48.6306493
  65.5226993  63.2414913  49.2586493  64.2236993  63.0014913  48.8896493
  64.9956993  62.9424913  48.7616493  61.7566993  58.4704913  51.3716493
  61.9176993  57.7264913  51.7986493  61.7116993  58.2214913  50.5366493
  61.7736993  58.3234913  51.3116493  63.5086993  54.2784913  51.2516493
  64.2136993  54.5984913  50.8496493  63.7496993  53.4714913  51.4786493
  63.6476993  54.2064913  51.2256493  66.8026993  65.1224913  54.2366493
  67.5596993  65.4084913  53.9106493  66.2556993  65.1744913  53.5586493
  66.8336993  65.1724913  54.0876493  64.0876993  63.2644913  37.1626493
  63.2826993  63.0874913  36.8776493  64.0546993  64.1154913  37.3546493
  63.9636993  63.3634913  37.1496493  60.0176993  59.3314913  47.3126493
  60.4576993  59.2284913  46.5666493  60.5626993  59.0184913  47.9176493
  60.1626993  59.2704913  47.2916493  68.0336993  58.4334913  52.9046493
  67.3856993  58.9034913  53.2526493  68.5986993  58.3444913  53.5636493
  68.0216993  58.4894913  53.0536493  67.7216993  59.9704913  49.2026493
  68.0236993  60.3904913  49.9056493  67.7576993  59.1304913  49.4346493
  67.7716993  59.9084913  49.3406493  70.2696993  59.4174913  41.4546493
  70.4766993  59.2164913  42.2786493  71.0256993  59.6854913  41.1126493
  70.4116993  59.4274913  41.5256493  63.5646993  54.3164913  47.3596493
  62.7386993  54.1674913  47.5966493  63.5246993  54.3514913  46.4886493
  63.4366993  54.2994913  47.2656493  65.2056993  65.3564913  52.1476493
  64.4106993  65.2924913  52.4986493  65.2766993  66.2034913  51.9526493
  65.0986993  65.4714913  52.1706493  56.1296993  54.7144913  53.3946493
  55.9896993  55.5094913  53.0636493  55.3436993  54.4714913  53.6836493
  55.9926993  54.7964913  53.3886493  59.1936993  57.4584913  40.6196493
  59.3196993  57.1294913  39.8216493  58.3816993  57.2094913  40.8186493
  59.0926993  57.3734913  40.5316493  67.9506993  64.6114913  43.6636493
  68.0266993  64.9524913  44.4626493  68.1196993  63.7644913  43.7846493
  67.9866993  64.5364913  43.7996493  65.4726993  63.8854913  43.2286493
  65.1746993  63.5704913  43.9856493  66.1676993  64.3584913  43.4636493
  65.5316993  63.9084913  43.3756493  68.3836993  61.2774913  51.6426493
  68.1286993  60.5584913  52.0646493  69.2046993  61.3934913  51.9126493
  68.4676993  61.1884913  51.7446493  66.3176993  62.4674913  54.8296493
  66.6406993  63.1534913  54.3976493  65.6136993  62.7904913  55.2316493
  66.2606993  62.6164913  54.8246493  66.1026993  65.9314913  48.6886493
  65.4086993  66.3334913  49.0316493  66.7796993  66.3644913  49.0276493
  66.0996993  66.0544913  48.7896493  59.1706993  59.4694913  51.0356493
  59.5456993  60.0884913  50.5486493  59.8446993  58.9954913  51.3206493
  59.3256993  59.4914913  51.0056493  56.9456993  57.9174913  50.3106493
  57.0226993  57.7484913  49.4576493  57.6916993  58.3234913  50.5076493
  57.0666993  57.9524913  50.2136493  59.4996993  55.3274913  52.7216493
  59.4186993  54.4834913  52.9276493  59.1856993  55.3714913  51.9086493
  59.4416993  55.2094913  52.6316493  56.3426993  63.1434913  50.5346493
  56.6626993  63.3624913  49.7536493  56.2426993  62.2784913  50.4796493
  56.3746993  63.0484913  50.4116493  57.7986993  59.0794913  37.1526493
  57.1266993  59.0934913  37.7086493  57.8936993  58.2314913  36.9686493
  57.7136993  58.9564913  37.2076493  67.4856993  55.5034913  53.8886493
  67.5776993  56.2154913  54.3826493  66.8486993  55.0584913  54.2856493
  67.4046993  55.5424913  54.0206493  66.4796993  55.6934913  44.7426493
  65.7796993  56.2114913  44.6866493  66.5176993  55.3134913  43.9586493
  66.3816993  55.7144913  44.6186493  61.7866993  67.7844913  38.2666493
  62.2276993  67.8644913  39.0146493  60.9816993  67.5684913  38.5246493
  61.7326993  67.7644913  38.4156493  70.0776993  56.2094913  47.5426493
  70.9326993  56.3084913  47.6876493  69.7086993  56.7624913  48.1076493
  70.1496993  56.3064913  47.6476493  61.1056993  62.4354913  51.9196493
  60.7096993  63.2094913  51.9946493  60.6996993  62.0624913  51.2436493
  60.9876993  62.4944913  51.8306493  70.3816993  61.4894913  46.0336493
  71.0476993  62.0304913  46.1936493  70.0366993  61.8004913  45.2946493
  70.4286993  61.6154913  45.9486493  59.1156993  66.8544913  38.8676493
  58.8716993  66.5474913  39.6476493  59.0826993  66.1514913  38.3516493
  59.0746993  66.7054913  38.9066493  61.9346993  65.0994913  37.6106493
  61.1166993  64.8314913  37.7506493  61.9066993  65.9514913  37.7956493
  61.8096993  65.1864913  37.6586493  61.5346993  55.4124913  49.3696493
  60.6706993  55.4964913  49.4496493  61.7546993  54.8984913  50.0386493
  61.4396993  55.3494913  49.4806493  65.6376993  56.1604913  47.7436493
  64.9006993  55.7064913  47.8566493  66.2086993  55.7584913  48.2666493
  65.6126993  56.0334913  47.8376493  68.3696993  67.0084913  49.5316493
  68.5756993  67.3094913  50.3236493  68.3086993  67.7304913  49.0466493
  68.3906993  67.1594913  49.5766493  63.1406993  60.4894913  52.9476493
  62.8186993  59.9134913  52.3776493  62.7816993  61.2444913  52.7016493
  63.0406993  60.5154913  52.8276493  63.9366993  53.7414913  37.5746493
  64.0146993  53.9884913  36.7416493  63.1936993  54.1184913  37.8326493
  63.8386993  53.8334913  37.4896493  58.7546993  55.4954913  50.0176493
  58.4116993  54.7284913  49.7836493  58.0596993  56.0194913  50.0816493
  58.6016993  55.4594913  49.9926493  67.8006993  54.3514913  46.9946493
  68.4706993  54.8954913  47.1216493  67.2976993  54.7754913  46.4216493
  67.8256993  54.4944913  46.9286493  67.1596993  60.1594913  44.4876493
  67.7106993  59.5524913  44.7876493  66.7346993  60.4224913  45.2026493
  67.1786993  60.1084913  44.6366493  57.4076993  58.8094913  43.9736493
  57.0396993  59.1114913  44.7046493  57.9416993  58.1804913  44.2576493
  57.4316993  58.7614913  44.1236493  57.0956993  67.2174913  51.4846493
  56.5216993  67.6334913  51.9936493  57.8286993  67.6824913  51.5796493
  57.1196993  67.3474913  51.5736493  69.1296993  61.9904913  41.0496493
  69.1976993  61.1404913  41.2306493  68.3066993  62.0764913  40.7716493
  69.0176993  61.8774913  41.0356493  63.0486993  62.8814913  39.9876493
  63.1486993  63.0204913  39.1326493  63.8666993  62.8214913  40.2836493
  63.1836993  62.8924913  39.9046493  68.2836993  67.2104913  39.7896493
  68.0326993  67.0824913  40.6156493  67.9666993  66.5154913  39.3686493
  68.1996993  67.0894913  39.8496493  62.1876993  55.8564913  53.1036493
  62.4216993  55.2804913  52.4906493  61.3456993  55.6754913  53.2446493
  62.0976993  55.7444913  53.0336493  69.8146993  63.4744913  55.5556493
  70.6856993  63.4384913  55.5196493  69.5956993  63.8944913  54.8236493
  69.9116993  63.5304913  55.4426493  65.1696993  65.4184913  39.2196493
  65.8866993  65.0714913  38.8636493  65.1356993  66.2184913  38.8716493
  65.2706993  65.4854913  39.1156493  66.5786993  54.0594913  23.4584083
  66.3336993  54.5474913  22.7784083  67.4416993  53.9864913  23.3584083
  66.6696993  54.1204913  23.3434083  66.3876993  60.9754913  28.1294083
  65.8636993  61.5714913  28.4924083  66.7846993  60.6074913  28.8134083
  66.3686993  61.0094913  28.2844083  56.2566993  65.1154913  23.5854083
  55.8156993  65.2334913  24.3284083  55.9736993  64.3404913  23.3004083
  56.1496993  65.0184913  23.6534083  55.9996993  58.9074913  20.0924083
  55.2216993  59.0694913  19.7324083  56.0386993  58.0364913  20.1144083
  55.8906993  58.8024913  20.0424083  59.1386993  64.1704913  18.7644083
  58.7466993  63.7994913  18.0784083  59.0586993  63.5724913  19.3934083
  59.0686993  64.0274913  18.7554083  69.0586993  62.0424913  24.8054083
  69.1386993  62.0464913  23.9364083  68.4746993  61.4104913  24.9544083
  68.9836993  61.9494913  24.6994083  58.7656993  65.8114913  22.6644083
  59.3736993  65.6414913  23.2674083  58.0146993  65.6714913  23.0854083
  58.7446993  65.7654913  22.8154083  63.0476993  55.1464913  22.6134083
  62.9776993  55.8234913  22.0674083  63.7886993  54.7584913  22.3644083
  63.1466993  55.1894913  22.4954083  56.1966993  67.8504913  29.8404083
  56.3256993  67.5704913  30.6564083  55.5866993  67.3094913  29.5314083
  56.1256993  67.7294913  29.9154083  62.7706993  65.3754913  34.9074083
  62.5346993  65.3724913  35.7474083  62.0226993  65.2274913  34.4834083
  62.6246993  65.3524913  34.9684083  57.6426993  62.3714913  24.0424083
  57.1806993  61.9794913  23.4154083  58.3426993  61.8584913  24.1344083
  57.6776993  62.2384913  23.9634083  62.1506993  57.9814913  29.3894083
  62.8286993  57.9994913  28.8404083  62.1056993  57.1454913  29.6344083
  62.2436993  57.8604913  29.3444083  59.6436993  60.4714913  24.0654083
  60.4606993  60.2844913  24.3084083  59.1666993  59.8574913  24.4614083
  59.6936993  60.3534913  24.1604083  63.8476993  66.4524913  26.6754083
  64.1956993  65.6534913  26.7054083  64.5126993  66.9564913  26.4204083
  63.9976993  66.4084913  26.6424083  63.9046993  65.9014913  22.8864083
  64.2356993  65.2574913  23.3724083  64.1446993  65.6904913  22.0754083
  63.9886993  65.7754913  22.8384083  65.8726993  60.0324913  34.2254083
  65.0246993  59.9334913  34.0474083  65.9016993  60.7774913  34.6794083
  65.7516993  60.1284913  34.2664083  60.2406993  55.5654913  23.3314083
  59.9446993  56.0664913  22.6814083  61.1076993  55.6434913  23.2744083
  60.3246993  55.6514913  23.2274083  70.4306993  52.9924913  33.3394083
  70.2726993  53.7614913  32.9574083  69.6586993  52.7724913  33.6834083
  70.2926993  53.0734913  33.3344083  63.2196993  54.7074913  25.5544083
  63.2926993  55.5674913  25.6834083  63.1816993  54.6324913  24.6864083
  63.2246993  54.8234913  25.4454083  67.8926993  57.6334913  17.8534083
  67.4426993  58.3144913  18.1604083  68.0066993  57.1294913  18.5564083
  67.8436993  57.6594913  18.0024083  56.0986993  60.1324913  27.0554083
  55.8426993  60.9634913  26.9804083  55.4346993  59.7494913  27.4724083
  55.9626993  60.1984913  27.1064083  61.8486993  67.6864913  22.4354083
  61.2696993  67.4114913  23.0274083  62.4726993  67.0774913  22.4604083
  61.8556993  67.5564913  22.5264083  59.1276993  54.9494913  27.5464083
  58.6066993  54.3214913  27.2384083  59.7186993  54.5124913  28.0174083
  59.1386993  54.7914913  27.5704083  62.4336993  57.0824913  36.8444083
  62.5506993  56.6284913  36.1084083  62.7216993  57.8804913  36.6414083
  62.4936993  57.1334913  36.7054083  58.1666993  56.6794913  35.8284083
  57.3886993  56.2894913  35.7564083  58.6576993  56.2674913  35.2374083
  58.1236993  56.5604913  35.7304083  58.3716993  66.9994913  26.3864083
  58.7946993  66.6434913  25.7124083  58.6956993  66.5774913  27.0784083
  58.4816993  66.8844913  26.3894083  64.8156993  54.3224913  34.9964083
  64.9936993  53.5134913  34.7214083  64.6726993  54.7634913  34.2574083
  64.8206993  54.2684913  34.8464083  65.4096993  59.2484913  23.7694083
  65.6966993  59.0164913  22.9794083  66.1416993  59.3274913  24.2384083
  65.5596993  59.2254913  23.7224083  66.1316993  59.5874913  18.8904083
  66.4126993  60.3754913  19.1394083  65.3556993  59.7524913  18.5274083
  66.0586993  59.7284913  18.8734083  55.5146993  57.2274913  33.4144083
  55.5106993  57.8144913  34.0604083  56.1086993  57.5394913  32.8574083
  55.6016993  57.3604913  33.4274083  67.8526993  67.5614913  33.9564083
  67.8186993  67.9434913  34.7404083  68.7066993  67.5194913  33.7854083
  67.9736993  67.6114913  34.0474083  68.4976993  55.6544913  19.7604083
  69.0376993  54.9724913  19.8364083  68.5596993  56.0524913  20.5344083
  68.5866993  55.6124913  19.8864083  56.4516993  56.8224913  22.3294083
  56.3376993  55.9584913  22.3604083  55.9766993  57.1164913  22.9994083
  56.3646993  56.7384913  22.4324083  65.7556993  58.0304913  21.0744083
  65.2476993  57.3684913  20.8204083  65.8076993  58.5344913  20.3644083
  65.6886993  58.0074913  20.9324083  65.7556993  54.9714913  20.9654083
  65.3006993  54.5694913  20.3394083  66.5286993  55.1264913  20.5904083
  65.8026993  54.9354913  20.8174083  64.3536993  57.3384913  25.4874083
  64.4276993  57.9064913  24.8294083  64.4746993  57.8304913  26.1974083
  64.3816993  57.4954913  25.4954083  69.5786993  67.1734913  23.8994083
  70.2796993  66.6914913  24.0884083  68.9186993  66.6044913  23.9444083
  69.5846993  67.0184913  23.9334083  58.9616993  53.1614913  23.8354083
  59.4976993  53.8494913  23.8254083  58.9646993  52.8874913  23.0074083
  59.0406993  53.2224913  23.7114083  61.9176993  63.5944913  27.8604083
  62.0896993  63.3844913  28.6894083  61.2626993  63.0604913  27.6444083
  61.8466993  63.4844913  27.9514083  68.1456993  57.5084913  31.3754083
  68.0506993  57.8274913  32.1814083  67.5526993  56.8694913  31.3374083
  68.0436993  57.4604913  31.4894083  62.6676993  63.5324913  30.4504083
  62.7206993  64.3794913  30.6524083  62.3826993  63.1624913  31.1874083
  62.6336993  63.6024913  30.5884083  68.8446993  64.2274913  29.5804083
  68.3306993  63.8154913  30.1514083  68.7186993  65.0714913  29.7614083
  68.7506993  64.2914913  29.6914083  69.4016993  53.4524913  24.2114083
  69.4506993  53.1344913  25.0224083  69.7246993  52.8084913  23.7184083
  69.4566993  53.3104913  24.2584083  59.4096993  56.9714913  25.4894083
  59.6816993  56.5414913  24.7814083  59.2336993  56.3354913  26.0604083
  59.4236993  56.8144913  25.4694083  59.2336993  64.3984913  25.0384083
  60.0846993  64.3184913  24.8654083  58.8766993  63.7164913  24.6264083
  59.3066993  64.2854913  24.9514083  57.5506993  58.0734913  28.5714083
  58.3936993  58.2934913  28.5284083  57.1616993  58.6464913  28.0404083
  57.6176993  58.1904913  28.4864083  69.9926993  61.2034913  19.2924083
  69.7726993  61.9344913  18.8704083  69.5446993  61.2544913  20.0394083
  69.8936993  61.3184913  19.3404083  61.6016993  64.4054913  23.2734083
  62.3146993  64.9004913  23.3634083  61.8236993  63.8384913  22.6474083
  61.7396993  64.3944913  23.1944083  55.7576993  66.0484913  26.5934083
  55.0906993  66.5364913  26.8694083  56.4376993  66.5934913  26.6224083
  55.7596993  66.2004913  26.6384083  63.4046993  59.7584913  36.6894083
  62.9206993  60.3354913  37.1314083  63.3766993  60.0534913  35.8684083
  63.3286993  59.8874913  36.6334083  55.8236993  62.7324913  21.6964083
  55.6386993  61.8934913  21.8484083  56.4826993  62.6964913  21.1264083
  55.8936993  62.6034913  21.6344083  55.9956993  66.8964913  21.2714083
  56.5476993  67.4654913  21.6354083  55.7636993  66.3814913  21.9364083
  56.0426993  66.9044913  21.4234083  60.1996993  65.8964913  28.3604083
  60.6666993  66.1854913  29.0384083  60.7716993  65.4184913  27.9064083
  60.3536993  65.8684913  28.3934083  68.6356993  57.9104913  26.0974083
  68.9796993  58.0624913  26.8844083  68.1826993  57.1724913  26.2104083
  68.6196993  57.8234913  26.2304083  55.8256993  65.3454913  18.8994083
  56.5816993  64.9134913  18.9574083  55.8406993  65.8774913  19.5904083
  55.9396993  65.3604913  19.0104083  56.7656993  63.5664913  26.9044083
  57.1966993  63.4374913  26.1574083  56.5606993  64.4144913  26.8784083
  56.7986993  63.6724913  26.7904083  63.1116993  57.1304913  20.5544083
  63.1096993  57.0134913  19.6894083  62.9306993  57.9784913  20.6464083
  63.0846993  57.2384913  20.4404083  60.8496993  67.0824913  25.1864083
  60.9756993  67.9254913  25.3734083  61.5176993  66.6834913  25.5824083
  60.9676993  67.1484913  25.2724083  58.9796993  60.5654913  35.0484083
  58.4436993  60.0594913  35.5164083  58.9996993  60.1754913  34.2684083
  58.9026993  60.4324913  35.0024083  59.4646993  59.9624913  20.1884083
  59.3366993  59.5144913  20.9264083  58.8826993  59.6204913  19.6364083
  59.3596993  59.8454913  20.2164083  59.6316993  61.7924913  26.7874083
  58.8506993  61.7334913  26.4044083  59.7036993  61.0404913  27.2244083
  59.5266993  61.6734913  26.7954083  60.0616993  61.5294913  30.2554083
  60.0866993  60.8544913  29.7044083  59.4156993  62.0254913  29.9434083
  59.9706993  61.5024913  30.1284083  69.9566993  59.2424913  28.6514083
  69.2946993  59.5704913  29.1144083  70.1436993  59.8764913  28.0824083
  69.8866993  59.3844913  28.6354083  66.6016993  55.1484913  32.0804083
  66.7506993  54.3234913  31.8374083  66.9806993  55.2034913  32.8644083
  66.6796993  55.0344913  32.1604083  68.1496993  57.2114913  22.1624083
  68.6396993  57.9284913  22.0854083  67.3596993  57.4724913  21.8994083
  68.1056993  57.3554913  22.1124083  57.8606993  62.8844913  35.8144083
  57.8236993  63.3854913  35.1004083  58.1916993  62.1324913  35.5194083
  57.9036993  62.8464913  35.6654083  69.4636993  65.0894913  34.0724083
  69.9476993  65.8074913  34.1704083  69.8576993  64.6624913  33.4214083
  69.5936993  65.1324913  33.9904083  63.7596993  67.9344913  35.2494083
  64.1136993  67.7564913  36.0264083  63.3236993  67.2054913  35.0504083
  63.7476993  67.8004913  35.3354083  64.7316993  58.6814913  27.8874083
  65.2116993  59.3804913  28.0954083  65.1046993  58.0344913  28.3384083
  64.8576993  58.6894913  27.9844083  66.9206993  61.8504913  20.1614083
  66.9126993  62.5724913  19.6714083  66.2816993  61.9854913  20.7384083
  66.8256993  61.9774913  20.1744083  67.9506993  65.6374913  27.3864083
  67.1536993  65.8614913  27.6604083  68.2086993  65.0434913  27.9714083
  67.8706993  65.5824913  27.5134083  61.5136993  54.1924913  19.8224083
  61.6106993  54.0854913  20.6834083  60.8056993  54.6984913  19.7574083
  61.4236993  54.2514913  19.9404083  58.6356993  62.4994913  21.0654083
  58.9596993  61.7204913  20.8434083  59.2816993  62.8674913  21.5204083
  58.7786993  62.4384913  21.0994083  66.9416993  63.4414913  31.8324083
  66.7866993  64.0514913  32.4364083  67.4756993  62.8834913  32.2384083
  66.9976993  63.4494913  31.9814083  55.6326993  54.1604913  22.0334083
  55.7616993  53.4524913  21.5414083  55.2656993  53.8424913  22.7584083
  55.5976993  54.0084913  22.0684083  65.3256993  61.8414913  22.4904083
  65.3846993  62.4914913  23.0694083  65.1366993  61.1454913  22.9814083
  65.3066993  61.8344913  22.6484083  70.5516993  66.1704913  28.3594083
  70.0726993  66.4684913  27.6934083  70.1956993  65.3944913  28.5374083
  70.4286993  66.0994913  28.2874083  59.8216993  56.3584913  19.0024083
  59.3106993  56.4114913  18.2964083  60.6056993  56.5984913  18.7064083
  59.8616993  56.4014913  18.8544083  64.5486993  63.8884913  26.9214083
  63.7016993  63.6944913  27.0024083  64.8726993  63.7234913  27.7144083
  64.4706993  63.8354913  27.0504083  58.3966993  63.5814913  29.2374083
  59.1186993  64.0694913  29.2004083  58.1266993  63.5514913  28.4084083
  58.4636993  63.6494913  29.1094083  61.6266993  58.7524913  25.9724083
  62.4726993  58.5624913  26.0704083  61.2566993  57.9754913  25.8344083
  61.6966993  58.6094913  25.9664083  56.4476993  60.0904913  22.6274083
  56.9366993  59.7984913  23.2884083  56.5766993  59.4974913  22.0004083
  56.5386993  59.9594913  22.6324083  60.9726993  61.5244913  18.1134083
  60.3626993  61.1194913  18.5874083  60.5866993  61.6424913  17.3404083
  60.8256993  61.4814913  18.0694083  57.7916993  64.6334913  33.5154083
  57.3706993  64.1154913  32.9544083  57.4396993  65.4194913  33.3724083
  57.6776993  64.6734913  33.4114083  62.4276993  59.9854913  20.8234083
  62.6996993  60.8114913  20.8904083  61.5646993  60.0604913  20.7274083
  62.3406993  60.1184913  20.8184083  70.4006993  57.1074913  35.4554083
  69.8756993  57.5664913  35.9794083  70.0396993  56.3124913  35.4494083
  70.2696993  57.0574913  35.5314083  55.9076993  55.9554913  27.3594083
  55.9516993  56.2994913  26.5584083  56.6626993  56.1924913  27.7264083
  56.0256993  56.0414913  27.2954083  68.8926993  60.6764913  35.5314083
  68.9656993  60.7804913  36.3944083  68.2586993  61.2344913  35.3104083
  68.8096993  60.7744913  35.6264083  70.4746993  67.4194913  19.4264083
  70.8086993  66.6134913  19.4614083  69.7196993  67.3474913  19.8564083
  70.4126993  67.2894913  19.4954083  70.9566993  59.2534913  25.0854083
  70.2116993  58.9304913  25.4034083  70.9586993  60.0794913  25.3654083
  70.8466993  59.3274913  25.1734083  67.8486993  65.2944913  18.8294083
  68.5326993  64.7804913  18.6604083  67.4316993  65.3404913  18.0644083
  67.8876993  65.2254913  18.6914083  62.5306993  66.4444913  30.1334083
  62.2326993  67.0364913  30.7004083  62.5856993  66.8864913  29.3844083
  62.4946993  66.5974913  30.1064083  60.5096993  65.3944913  33.5314083
  59.7036993  65.1044913  33.6984083  60.4206993  66.2624913  33.5374083
  60.3776993  65.4794913  33.5564083  69.8686993  55.5834913  32.5464083
  70.6126993  56.0354913  32.4834083  69.3026993  56.0534913  32.0774083
  69.8956993  55.7204913  32.4684083  65.0466993  62.8674913  29.6244083
  65.5226993  63.2414913  30.2524083  64.2236993  63.0014913  29.8834083
  64.9956993  62.9424913  29.7554083  61.7566993  58.4704913  32.3654083
  61.9176993  57.7264913  32.7924083  61.7116993  58.2214913  31.5304083
  61.7736993  58.3234913  32.3054083  63.5086993  54.2784913  32.2454083
  64.2136993  54.5984913  31.8434083  63.7496993  53.4714913  32.4724083
  63.6476993  54.2064913  32.2194083  66.8026993  65.1224913  35.2304083
  67.5596993  65.4084913  34.9044083  66.2556993  65.1744913  34.5524083
  66.8336993  65.1724913  35.0814083  64.0876993  63.2644913  18.1564083
  63.2826993  63.0874913  17.8714083  64.0546993  64.1154913  18.3484083
  63.9636993  63.3634913  18.1434083  60.0176993  59.3314913  28.3064083
  60.4576993  59.2284913  27.5604083  60.5626993  59.0184913  28.9114083
  60.1626993  59.2704913  28.2854083  68.0336993  58.4334913  33.8984083
  67.3856993  58.9034913  34.2464083  68.5986993  58.3444913  34.5574083
  68.0216993  58.4894913  34.0474083  67.7216993  59.9704913  30.1964083
  68.0236993  60.3904913  30.8994083  67.7576993  59.1304913  30.4284083
  67.7716993  59.9084913  30.3344083  70.2696993  59.4174913  22.4484083
  70.4766993  59.2164913  23.2724083  71.0256993  59.6854913  22.1064083
  70.4116993  59.4274913  22.5194083  63.5646993  54.3164913  28.3534083
  62.7386993  54.1674913  28.5904083  63.5246993  54.3514913  27.4824083
  63.4366993  54.2994913  28.2594083  65.2056993  65.3564913  33.1414083
  64.4106993  65.2924913  33.4924083  65.2766993  66.2034913  32.9464083
  65.0986993  65.4714913  33.1644083  56.1296993  54.7144913  34.3884083
  55.9896993  55.5094913  34.0574083  55.3436993  54.4714913  34.6774083
  55.9926993  54.7964913  34.3824083  59.1936993  57.4584913  21.6134083
  59.3196993  57.1294913  20.8154083  58.3816993  57.2094913  21.8124083
  59.0926993  57.3734913  21.5254083  67.9506993  64.6114913  24.6574083
  68.0266993  64.9524913  25.4564083  68.1196993  63.7644913  24.7784083
  67.9866993  64.5364913  24.7934083  65.4726993  63.8854913  24.2224083
  65.1746993  63.5704913  24.9794083  66.1676993  64.3584913  24.4574083
  65.5316993  63.9084913  24.3694083  68.3836993  61.2774913  32.6364083
  68.1286993  60.5584913  33.0584083  69.2046993  61.3934913  32.9064083
  68.4676993  61.1884913  32.7384083  66.3176993  62.4674913  35.8234083
  66.6406993  63.1534913  35.3914083  65.6136993  62.7904913  36.2254083
  66.2606993  62.6164913  35.8184083  66.1026993  65.9314913  29.6824083
  65.4086993  66.3334913  30.0254083  66.7796993  66.3644913  30.0214083
  66.0996993  66.0544913  29.7834083  59.1706993  59.4694913  32.0294083
  59.5456993  60.0884913  31.5424083  59.8446993  58.9954913  32.3144083
  59.3256993  59.4914913  31.9994083  56.9456993  57.9174913  31.3044083
  57.0226993  57.7484913  30.4514083  57.6916993  58.3234913  31.5014083
  57.0666993  57.9524913  31.2074083  59.4996993  55.3274913  33.7154083
  59.4186993  54.4834913  33.9214083  59.1856993  55.3714913  32.9024083
  59.4416993  55.2094913  33.6254083  56.3426993  63.1434913  31.5284083
  56.6626993  63.3624913  30.7474083  56.2426993  62.2784913  31.4734083
  56.3746993  63.0484913  31.4054083  57.7986993  59.0794913  18.1464083
  57.1266993  59.0934913  18.7024083  57.8936993  58.2314913  17.9624083
  57.7136993  58.9564913  18.2014083  67.4856993  55.5034913  34.8824083
  67.5776993  56.2154913  35.3764083  66.8486993  55.0584913  35.2794083
  67.4046993  55.5424913  35.0144083  66.4796993  55.6934913  25.7364083
  65.7796993  56.2114913  25.6804083  66.5176993  55.3134913  24.9524083
  66.3816993  55.7144913  25.6124083  61.7866993  67.7844913  19.2604083
  62.2276993  67.8644913  20.0084083  60.9816993  67.5684913  19.5184083
  61.7326993  67.7644913  19.4094083  70.0776993  56.2094913  28.5364083
  70.9326993  56.3084913  28.6814083  69.7086993  56.7624913  29.1014083
  70.1496993  56.3064913  28.6414083  61.1056993  62.4354913  32.9134083
  60.7096993  63.2094913  32.9884083  60.6996993  62.0624913  32.2374083
  60.9876993  62.4944913  32.8244083  70.3816993  61.4894913  27.0274083
  71.0476993  62.0304913  27.1874083  70.0366993  61.8004913  26.2884083
  70.4286993  61.6154913  26.9424083  59.1156993  66.8544913  19.8614083
  58.8716993  66.5474913  20.6414083  59.0826993  66.1514913  19.3454083
  59.0746993  66.7054913  19.9004083  61.9346993  65.0994913  18.6044083
  61.1166993  64.8314913  18.7444083  61.9066993  65.9514913  18.7894083
  61.8096993  65.1864913  18.6524083  61.5346993  55.4124913  30.3634083
  60.6706993  55.4964913  30.4434083  61.7546993  54.8984913  31.0324083
  61.4396993  55.3494913  30.4744083  65.6376993  56.1604913  28.7374083
  64.9006993  55.7064913  28.8504083  66.2086993  55.7584913  29.2604083
  65.6126993  56.0334913  28.8314083  68.3696993  67.0084913  30.5254083
  68.5756993  67.3094913  31.3174083  68.3086993  67.7304913  30.0404083
  68.3906993  67.1594913  30.5704083  63.1406993  60.4894913  33.9414083
  62.8186993  59.9134913  33.3714083  62.7816993  61.2444913  33.6954083
  63.0406993  60.5154913  33.8214083  63.9366993  53.7414913  18.5684083
  64.0146993  53.9884913  17.7354083  63.1936993  54.1184913  18.8264083
  63.8386993  53.8334913  18.4834083  58.7546993  55.4954913  31.0114083
  58.4116993  54.7284913  30.7774083  58.0596993  56.0194913  31.0754083
  58.6016993  55.4594913  30.9864083  67.8006993  54.3514913  27.9884083
  68.4706993  54.8954913  28.1154083  67.2976993  54.7754913  27.4154083
  67.8256993  54.4944913  27.9224083  67.1596993  60.1594913  25.4814083
  67.7106993  59.5524913  25.7814083  66.7346993  60.4224913  26.1964083
  67.1786993  60.1084913  25.6304083  57.4076993  58.8094913  24.9674083
  57.0396993  59.1114913  25.6984083  57.9416993  58.1804913  25.2514083
  57.4316993  58.7614913  25.1174083  57.0956993  67.2174913  32.4784083
  56.5216993  67.6334913  32.9874083  57.8286993  67.6824913  32.5734083
  57.1196993  67.3474913  32.5674083  69.1296993  61.9904913  22.0434083
  69.1976993  61.1404913  22.2244083  68.3066993  62.0764913  21.7654083
  69.0176993  61.8774913  22.0294083  63.0486993  62.8814913  20.9814083
  63.1486993  63.0204913  20.1264083  63.8666993  62.8214913  21.2774083
  63.1836993  62.8924913  20.8984083  68.2836993  67.2104913  20.7834083
  68.0326993  67.0824913  21.6094083  67.9666993  66.5154913  20.3624083
  68.1996993  67.0894913  20.8434083  62.1876993  55.8564913  34.0974083
  62.4216993  55.2804913  33.4844083  61.3456993  55.6754913  34.2384083
  62.0976993  55.7444913  34.0274083  69.8146993  63.4744913  36.5494083
  70.6856993  63.4384913  36.5134083  69.5956993  63.8944913  35.8174083
  69.9116993  63.5304913  36.4364083  65.1696993  65.4184913  20.2134083
  65.8866993  65.0714913  19.8574083  65.1356993  66.2184913  19.8654083
  65.2706993  65.4854913  20.1094083  66.5786993  54.0594913   4.4521673
  66.3336993  54.5474913   3.7721673  67.4416993  53.9864913   4.3521673
  66.6696993  54.1204913   4.3371673  66.3876993  60.9754913   9.1231673
  65.8636993  61.5714913   9.4861673  66.7846993  60.6074913   9.8071673
  66.3686993  61.0094913   9.2781673  56.2566993  65.1154913   4.5791673
  55.8156993  65.2334913   5.3221673  55.9736993  64.3404913   4.2941673
  56.1496993  65.0184913   4.6471673  69.0586993  62.0424913   5.7991673
  69.1386993  62.0464913   4.9301673  68.4746993  61.4104913   5.9481673
  68.9836993  61.9494913   5.6931673  58.7656993  65.8114913   3.6581673
  59.3736993  65.6414913   4.2611673  58.0146993  65.6714913   4.0791673
  58.7446993  65.7654913   3.8091673  63.0476993  55.1464913   3.6071673
  62.9776993  55.8234913   3.0611673  63.7886993  54.7584913   3.3581673
  63.1466993  55.1894913   3.4891673  56.1966993  67.8504913  10.8341673
  56.3256993  67.5704913  11.6501673  55.5866993  67.3094913  10.5251673
  56.1256993  67.7294913  10.9091673  62.7706993  65.3754913  15.9011673
  62.5346993  65.3724913  16.7411673  62.0226993  65.2274913  15.4771673
  62.6246993  65.3524913  15.9621673  57.6426993  62.3714913   5.0361673
  57.1806993  61.9794913   4.4091673  58.3426993  61.8584913   5.1281673
  57.6776993  62.2384913   4.9571673  62.1506993  57.9814913  10.3831673
  62.8286993  57.9994913   9.8341673  62.1056993  57.1454913  10.6281673
  62.2436993  57.8604913  10.3381673  59.6436993  60.4714913   5.0591673
  60.4606993  60.2844913   5.3021673  59.1666993  59.8574913   5.4551673
  59.6936993  60.3534913   5.1541673  63.8476993  66.4524913   7.6691673
  64.1956993  65.6534913   7.6991673  64.5126993  66.9564913   7.4141673
  63.9976993  66.4084913   7.6361673  63.9046993  65.9014913   3.8801673
  64.2356993  65.2574913   4.3661673  64.1446993  65.6904913   3.0691673
  63.9886993  65.7754913   3.8321673  65.8726993  60.0324913  15.2191673
  65.0246993  59.9334913  15.0411673  65.9016993  60.7774913  15.6731673
  65.7516993  60.1284913  15.2601673  60.2406993  55.5654913   4.3251673
  59.9446993  56.0664913   3.6751673  61.1076993  55.6434913   4.2681673
  60.3246993  55.6514913   4.2211673  70.4306993  52.9924913  14.3331673
  70.2726993  53.7614913  13.9511673  69.6586993  52.7724913  14.6771673
  70.2926993  53.0734913  14.3281673  63.2196993  54.7074913   6.5481673
  63.2926993  55.5674913   6.6771673  63.1816993  54.6324913   5.6801673
  63.2246993  54.8234913   6.4391673  56.0986993  60.1324913   8.0491673
  55.8426993  60.9634913   7.9741673  55.4346993  59.7494913   8.4661673
  55.9626993  60.1984913   8.1001673  61.8486993  67.6864913   3.4291673
  61.2696993  67.4114913   4.0211673  62.4726993  67.0774913   3.4541673
  61.8556993  67.5564913   3.5201673  59.1276993  54.9494913   8.5401673
  58.6066993  54.3214913   8.2321673  59.7186993  54.5124913   9.0111673
  59.1386993  54.7914913   8.5641673  62.4336993  57.0824913  17.8381673
  62.5506993  56.6284913  17.1021673  62.7216993  57.8804913  17.6351673
  62.4936993  57.1334913  17.6991673  58.1666993  56.6794913  16.8221673
  57.3886993  56.2894913  16.7501673  58.6576993  56.2674913  16.2311673
  58.1236993  56.5604913  16.7241673  58.3716993  66.9994913   7.3801673
  58.7946993  66.6434913   6.7061673  58.6956993  66.5774913   8.0721673
  58.4816993  66.8844913   7.3831673  64.8156993  54.3224913  15.9901673
  64.9936993  53.5134913  15.7151673  64.6726993  54.7634913  15.2511673
  64.8206993  54.2684913  15.8401673  65.4096993  59.2484913   4.7631673
  65.6966993  59.0164913   3.9731673  66.1416993  59.3274913   5.2321673
  65.5596993  59.2254913   4.7161673  55.5146993  57.2274913  14.4081673
  55.5106993  57.8144913  15.0541673  56.1086993  57.5394913  13.8511673
  55.6016993  57.3604913  14.4211673  67.8526993  67.5614913  14.9501673
  67.8186993  67.9434913  15.7341673  68.7066993  67.5194913  14.7791673
  67.9736993  67.6114913  15.0411673  56.4516993  56.8224913   3.3231673
  56.3376993  55.9584913   3.3541673  55.9766993  57.1164913   3.9931673
  56.3646993  56.7384913   3.4261673  65.7556993  58.0304913   2.0681673
  65.2476993  57.3684913   1.8141673  65.8076993  58.5344913   1.3581673
  65.6886993  58.0074913   1.9261673  65.7556993  54.9714913   1.9591673
  65.3006993  54.5694913   1.3331673  66.5286993  55.1264913   1.5841673
  65.8026993  54.9354913   1.8111673  64.3536993  57.3384913   6.4811673
  64.4276993  57.9064913   5.8231673  64.4746993  57.8304913   7.1911673
  64.3816993  57.4954913   6.4891673  69.5786993  67.1734913   4.8931673
  70.2796993  66.6914913   5.0821673  68.9186993  66.6044913   4.9381673
  69.5846993  67.0184913   4.9271673  58.9616993  53.1614913   4.8291673
  59.4976993  53.8494913   4.8191673  58.9646993  52.8874913   4.0011673
  59.0406993  53.2224913   4.7051673  61.9176993  63.5944913   8.8541673
  62.0896993  63.3844913   9.6831673  61.2626993  63.0604913   8.6381673
  61.8466993  63.4844913   8.9451673  68.1456993  57.5084913  12.3691673
  68.0506993  57.8274913  13.1751673  67.5526993  56.8694913  12.3311673
  68.0436993  57.4604913  12.4831673  62.6676993  63.5324913  11.4441673
  62.7206993  64.3794913  11.6461673  62.3826993  63.1624913  12.1811673
  62.6336993  63.6024913  11.5821673  68.8446993  64.2274913  10.5741673
  68.3306993  63.8154913  11.1451673  68.7186993  65.0714913  10.7551673
  68.7506993  64.2914913  10.6851673  69.4016993  53.4524913   5.2051673
  69.4506993  53.1344913   6.0161673  69.7246993  52.8084913   4.7121673
  69.4566993  53.3104913   5.2521673  59.4096993  56.9714913   6.4831673
  59.6816993  56.5414913   5.7751673  59.2336993  56.3354913   7.0541673
  59.4236993  56.8144913   6.4631673  59.2336993  64.3984913   6.0321673
  60.0846993  64.3184913   5.8591673  58.8766993  63.7164913   5.6201673
  59.3066993  64.2854913   5.9451673  57.5506993  58.0734913   9.5651673
  58.3936993  58.2934913   9.5221673  57.1616993  58.6464913   9.0341673
  57.6176993  58.1904913   9.4801673  61.6016993  64.4054913   4.2671673
  62.3146993  64.9004913   4.3571673  61.8236993  63.8384913   3.6411673
  61.7396993  64.3944913   4.1881673  55.7576993  66.0484913   7.5871673
  55.0906993  66.5364913   7.8631673  56.4376993  66.5934913   7.6161673
  55.7596993  66.2004913   7.6321673  63.4046993  59.7584913  17.6831673
  62.9206993  60.3354913  18.1251673  63.3766993  60.0534913  16.8621673
  63.3286993  59.8874913  17.6271673  55.8236993  62.7324913   2.6901673
  55.6386993  61.8934913   2.8421673  56.4826993  62.6964913   2.1201673
  55.8936993  62.6034913   2.6281673  55.9956993  66.8964913   2.2651673
  56.5476993  67.4654913   2.6291673  55.7636993  66.3814913   2.9301673
  56.0426993  66.9044913   2.4171673  60.1996993  65.8964913   9.3541673
  60.6666993  66.1854913  10.0321673  60.7716993  65.4184913   8.9001673
  60.3536993  65.8684913   9.3871673  68.6356993  57.9104913   7.0911673
  68.9796993  58.0624913   7.8781673  68.1826993  57.1724913   7.2041673
  68.6196993  57.8234913   7.2241673  56.7656993  63.5664913   7.8981673
  57.1966993  63.4374913   7.1511673  56.5606993  64.4144913   7.8721673
  56.7986993  63.6724913   7.7841673  60.8496993  67.0824913   6.1801673
  60.9756993  67.9254913   6.3671673  61.5176993  66.6834913   6.5761673
  60.9676993  67.1484913   6.2661673  58.9796993  60.5654913  16.0421673
  58.4436993  60.0594913  16.5101673  58.9996993  60.1754913  15.2621673
  58.9026993  60.4324913  15.9961673  59.6316993  61.7924913   7.7811673
  58.8506993  61.7334913   7.3981673  59.7036993  61.0404913   8.2181673
  59.5266993  61.6734913   7.7891673  60.0616993  61.5294913  11.2491673
  60.0866993  60.8544913  10.6981673  59.4156993  62.0254913  10.9371673
  59.9706993  61.5024913  11.1221673  69.9566993  59.2424913   9.6451673
  69.2946993  59.5704913  10.1081673  70.1436993  59.8764913   9.0761673
  69.8866993  59.3844913   9.6291673  66.6016993  55.1484913  13.0741673
  66.7506993  54.3234913  12.8311673  66.9806993  55.2034913  13.8581673
  66.6796993  55.0344913  13.1541673  68.1496993  57.2114913   3.1561673
  68.6396993  57.9284913   3.0791673  67.3596993  57.4724913   2.8931673
  68.1056993  57.3554913   3.1061673  57.8606993  62.8844913  16.8081673
  57.8236993  63.3854913  16.0941673  58.1916993  62.1324913  16.5131673
  57.9036993  62.8464913  16.6591673  69.4636993  65.0894913  15.0661673
  69.9476993  65.8074913  15.1641673  69.8576993  64.6624913  14.4151673
  69.5936993  65.1324913  14.9841673  63.7596993  67.9344913  16.2431673
  64.1136993  67.7564913  17.0201673  63.3236993  67.2054913  16.0441673
  63.7476993  67.8004913  16.3291673  64.7316993  58.6814913   8.8811673
  65.2116993  59.3804913   9.0891673  65.1046993  58.0344913   9.3321673
  64.8576993  58.6894913   8.9781673  67.9506993  65.6374913   8.3801673
  67.1536993  65.8614913   8.6541673  68.2086993  65.0434913   8.9651673
  67.8706993  65.5824913   8.5071673  58.6356993  62.4994913   2.0591673
  58.9596993  61.7204913   1.8371673  59.2816993  62.8674913   2.5141673
  58.7786993  62.4384913   2.0931673  66.9416993  63.4414913  12.8261673
  66.7866993  64.0514913  13.4301673  67.4756993  62.8834913  13.2321673
  66.9976993  63.4494913  12.9751673  55.6326993  54.1604913   3.0271673
  55.7616993  53.4524913   2.5351673  55.2656993  53.8424913   3.7521673
  55.5976993  54.0084913   3.0621673  65.3256993  61.8414913   3.4841673
  65.3846993  62.4914913   4.0631673  65.1366993  61.1454913   3.9751673
  65.3066993  61.8344913   3.6421673  70.5516993  66.1704913   9.3531673
  70.0726993  66.4684913   8.6871673  70.1956993  65.3944913   9.5311673
  70.4286993  66.0994913   9.2811673  64.5486993  63.8884913   7.9151673
  63.7016993  63.6944913   7.9961673  64.8726993  63.7234913   8.7081673
  64.4706993  63.8354913   8.0441673  58.3966993  63.5814913  10.2311673
  59.1186993  64.0694913  10.1941673  58.1266993  63.5514913   9.4021673
  58.4636993  63.6494913  10.1031673  61.6266993  58.7524913   6.9661673
  62.4726993  58.5624913   7.0641673  61.2566993  57.9754913   6.8281673
  61.6966993  58.6094913   6.9601673  56.4476993  60.0904913   3.6211673
  56.9366993  59.7984913   4.2821673  56.5766993  59.4974913   2.9941673
  56.5386993  59.9594913   3.6261673  57.7916993  64.6334913  14.5091673
  57.3706993  64.1154913  13.9481673  57.4396993  65.4194913  14.3661673
  57.6776993  64.6734913  14.4051673  62.4276993  59.9854913   1.8171673
  62.6996993  60.8114913   1.8841673  61.5646993  60.0604913   1.7211673
  62.3406993  60.1184913   1.8121673  70.4006993  57.1074913  16.4491673
  69.8756993  57.5664913  16.9731673  70.0396993  56.3124913  16.4431673
  70.2696993  57.0574913  16.5251673  55.9076993  55.9554913   8.3531673
  55.9516993  56.2994913   7.5521673  56.6626993  56.1924913   8.7201673
  56.0256993  56.0414913   8.2891673  68.8926993  60.6764913  16.5251673
  68.9656993  60.7804913  17.3881673  68.2586993  61.2344913  16.3041673
  68.8096993  60.7744913  16.6201673  70.9566993  59.2534913   6.0791673
  70.2116993  58.9304913   6.3971673  70.9586993  60.0794913   6.3591673
  70.8466993  59.3274913   6.1671673  62.5306993  66.4444913  11.1271673
  62.2326993  67.0364913  11.6941673  62.5856993  66.8864913  10.3781673
  62.4946993  66.5974913  11.1001673  60.5096993  65.3944913  14.5251673
  59.7036993  65.1044913  14.6921673  60.4206993  66.2624913  14.5311673
  60.3776993  65.4794913  14.5501673  69.8686993  55.5834913  13.5401673
  70.6126993  56.0354913  13.4771673  69.3026993  56.0534913  13.0711673
  69.8956993  55.7204913  13.4621673  65.0466993  62.8674913  10.6181673
  65.5226993  63.2414913  11.2461673  64.2236993  63.0014913  10.8771673
  64.9956993  62.9424913  10.7491673  61.7566993  58.4704913  13.3591673
  61.9176993  57.7264913  13.7861673  61.7116993  58.2214913  12.5241673
  61.7736993  58.3234913  13.2991673  63.5086993  54.2784913  13.2391673
  64.2136993  54.5984913  12.8371673  63.7496993  53.4714913  13.4661673
  63.6476993  54.2064913  13.2131673  66.8026993  65.1224913  16.2241673
  67.5596993  65.4084913  15.8981673  66.2556993  65.1744913  15.5461673
  66.8336993  65.1724913  16.0751673  60.0176993  59.3314913   9.3001673
  60.4576993  59.2284913   8.5541673  60.5626993  59.0184913   9.9051673
  60.1626993  59.2704913   9.2791673  68.0336993  58.4334913  14.8921673
  67.3856993  58.9034913  15.2401673  68.5986993  58.3444913  15.5511673
  68.0216993  58.4894913  15.0411673  67.7216993  59.9704913  11.1901673
  68.0236993  60.3904913  11.8931673  67.7576993  59.1304913  11.4221673
  67.7716993  59.9084913  11.3281673  70.2696993  59.4174913   3.4421673
  70.4766993  59.2164913   4.2661673  71.0256993  59.6854913   3.1001673
  70.4116993  59.4274913   3.5131673  63.5646993  54.3164913   9.3471673
  62.7386993  54.1674913   9.5841673  63.5246993  54.3514913   8.4761673
  63.4366993  54.2994913   9.2531673  65.2056993  65.3564913  14.1351673
  64.4106993  65.2924913  14.4861673  65.2766993  66.2034913  13.9401673
  65.0986993  65.4714913  14.1581673  56.1296993  54.7144913  15.3821673
  55.9896993  55.5094913  15.0511673  55.3436993  54.4714913  15.6711673
  55.9926993  54.7964913  15.3761673  59.1936993  57.4584913   2.6071673
  59.3196993  57.1294913   1.8091673  58.3816993  57.2094913   2.8061673
  59.0926993  57.3734913   2.5191673  67.9506993  64.6114913   5.6511673
  68.0266993  64.9524913   6.4501673  68.1196993  63.7644913   5.7721673
  67.9866993  64.5364913   5.7871673  65.4726993  63.8854913   5.2161673
  65.1746993  63.5704913   5.9731673  66.1676993  64.3584913   5.4511673
  65.5316993  63.9084913   5.3631673  68.3836993  61.2774913  13.6301673
  68.1286993  60.5584913  14.0521673  69.2046993  61.3934913  13.9001673
  68.4676993  61.1884913  13.7321673  66.3176993  62.4674913  16.8171673
  66.6406993  63.1534913  16.3851673  65.6136993  62.7904913  17.2191673
  66.2606993  62.6164913  16.8121673  66.1026993  65.9314913  10.6761673
  65.4086993  66.3334913  11.0191673  66.7796993  66.3644913  11.0151673
  66.0996993  66.0544913  10.7771673  59.1706993  59.4694913  13.0231673
  59.5456993  60.0884913  12.5361673  59.8446993  58.9954913  13.3081673
  59.3256993  59.4914913  12.9931673  56.9456993  57.9174913  12.2981673
  57.0226993  57.7484913  11.4451673  57.6916993  58.3234913  12.4951673
  57.0666993  57.9524913  12.2011673  59.4996993  55.3274913  14.7091673
  59.4186993  54.4834913  14.9151673  59.1856993  55.3714913  13.8961673
  59.4416993  55.2094913  14.6191673  56.3426993  63.1434913  12.5221673
  56.6626993  63.3624913  11.7411673  56.2426993  62.2784913  12.4671673
  56.3746993  63.0484913  12.3991673  67.4856993  55.5034913  15.8761673
  67.5776993  56.2154913  16.3701673  66.8486993  55.0584913  16.2731673
  67.4046993  55.5424913  16.0081673  66.4796993  55.6934913   6.7301673
  65.7796993  56.2114913   6.6741673  66.5176993  55.3134913   5.9461673
  66.3816993  55.7144913   6.6061673  70.0776993  56.2094913   9.5301673
  70.9326993  56.3084913   9.6751673  69.7086993  56.7624913  10.0951673
  70.1496993  56.3064913   9.6351673  61.1056993  62.4354913  13.9071673
  60.7096993  63.2094913  13.9821673  60.6996993  62.0624913  13.2311673
  60.9876993  62.4944913  13.8181673  70.3816993  61.4894913   8.0211673
  71.0476993  62.0304913   8.1811673  70.0366993  61.8004913   7.2821673
  70.4286993  61.6154913   7.9361673  61.5346993  55.4124913  11.3571673
  60.6706993  55.4964913  11.4371673  61.7546993  54.8984913  12.0261673
  61.4396993  55.3494913  11.4681673  65.6376993  56.1604913   9.7311673
  64.9006993  55.7064913   9.8441673  66.2086993  55.7584913  10.2541673
  65.6126993  56.0334913   9.8251673  68.3696993  67.0084913  11.5191673
  68.5756993  67.3094913  12.3111673  68.3086993  67.7304913  11.0341673
  68.3906993  67.1594913  11.5641673  63.1406993  60.4894913  14.9351673
  62.8186993  59.9134913  14.3651673  62.7816993  61.2444913  14.6891673
  63.0406993  60.5154913  14.8151673  58.7546993  55.4954913  12.0051673
  58.4116993  54.7284913  11.7711673  58.0596993  56.0194913  12.0691673
  58.6016993  55.4594913  11.9801673  67.8006993  54.3514913   8.9821673
  68.4706993  54.8954913   9.1091673  67.2976993  54.7754913   8.4091673
  67.8256993  54.4944913   8.9161673  67.1596993  60.1594913   6.4751673
  67.7106993  59.5524913   6.7751673  66.7346993  60.4224913   7.1901673
  67.1786993  60.1084913   6.6241673  57.4076993  58.8094913   5.9611673
  57.0396993  59.1114913   6.6921673  57.9416993  58.1804913   6.2451673
  57.4316993  58.7614913   6.1111673  57.0956993  67.2174913  13.4721673
  56.5216993  67.6334913  13.9811673  57.8286993  67.6824913  13.5671673
  57.1196993  67.3474913  13.5611673  69.1296993  61.9904913   3.0371673
  69.1976993  61.1404913   3.2181673  68.3066993  62.0764913   2.7591673
  69.0176993  61.8774913   3.0231673  68.2836993  67.2104913   1.7771673
  68.0326993  67.0824913   2.6031673  67.9666993  66.5154913   1.3561673
  68.1996993  67.0894913   1.8371673  62.1876993  55.8564913  15.0911673
  62.4216993  55.2804913  14.4781673  61.3456993  55.6754913  15.2321673
  62.0976993  55.7444913  15.0211673  69.8146993  63.4744913  17.5431673
  70.6856993  63.4384913  17.5071673  69.5956993  63.8944913  16.8111673
  69.9116993  63.5304913  17.4301673  66.5786993  35.5813833  80.4771313
  66.3336993  36.0693833  79.7971313  67.4416993  35.5083833  80.3771313
  66.6696993  35.6423833  80.3621313  66.3876993  42.4973833  85.1481313
  65.8636993  43.0933833  85.5111313  66.7846993  42.1293833  85.8321313
  66.3686993  42.5313833  85.3031313  56.2566993  46.6373833  80.6041313
  55.8156993  46.7553833  81.3471313  55.9736993  45.8623833  80.3191313
  56.1496993  46.5403833  80.6721313  55.9996993  40.4293833  77.1111313
  55.2216993  40.5913833  76.7511313  56.0386993  39.5583833  77.1331313
  55.8906993  40.3243833  77.0611313  59.1386993  45.6923833  75.7831313
  58.7466993  45.3213833  75.0971313  59.0586993  45.0943833  76.4121313
  59.0686993  45.5493833  75.7741313  69.0586993  43.5643833  81.8241313
  69.1386993  43.5683833  80.9551313  68.4746993  42.9323833  81.9731313
  68.9836993  43.4713833  81.7181313  58.7656993  47.3333833  79.6831313
  59.3736993  47.1633833  80.2861313  58.0146993  47.1933833  80.1041313
  58.7446993  47.2873833  79.8341313  63.0476993  36.6683833  79.6321313
  62.9776993  37.3453833  79.0861313  63.7886993  36.2803833  79.3831313
  63.1466993  36.7113833  79.5141313  57.6566993  50.4243833  75.7601313
  58.1236993  50.5083833  75.0281313  58.1116993  49.8463833  76.2291313
  57.7926993  50.3513833  75.7211313  56.1966993  49.3723833  86.8591313
  56.3256993  49.0923833  87.6751313  55.5866993  48.8313833  86.5501313
  56.1256993  49.2513833  86.9341313  57.6426993  43.8933833  81.0611313
  57.1806993  43.5013833  80.4341313  58.3426993  43.3803833  81.1531313
  57.6776993  43.7603833  80.9821313  62.1506993  39.5033833  86.4081313
  62.8286993  39.5213833  85.8591313  62.1056993  38.6673833  86.6531313
  62.2436993  39.3823833  86.3631313  62.7526993  50.0893833  89.1891313
  62.8906993  50.8493833  88.7821313  63.5436993  49.7243833  89.2161313
  62.8896993  50.1483833  89.1331313  59.6436993  41.9933833  81.0841313
  60.4606993  41.8063833  81.3271313  59.1666993  41.3793833  81.4801313
  59.6936993  41.8753833  81.1791313  63.8476993  47.9743833  83.6941313
  64.1956993  47.1753833  83.7241313  64.5126993  48.4783833  83.4391313
  63.9976993  47.9303833  83.6611313  63.9046993  47.4233833  79.9051313
  64.2356993  46.7793833  80.3911313  64.1446993  47.2123833  79.0941313
  63.9886993  47.2973833  79.8571313  60.2406993  37.0873833  80.3501313
  59.9446993  37.5883833  79.7001313  61.1076993  37.1653833  80.2931313
  60.3246993  37.1733833  80.2461313  70.4306993  34.5143833  90.3581313
  70.2726993  35.2833833  89.9761313  69.6586993  34.2943833  90.7021313
  70.2926993  34.5953833  90.3531313  63.2196993  36.2293833  82.5731313
  63.2926993  37.0893833  82.7021313  63.1816993  36.1543833  81.7051313
  63.2246993  36.3453833  82.4641313  67.8926993  39.1553833  74.8721313
  67.4426993  39.8363833  75.1791313  68.0066993  38.6513833  75.5751313
  67.8436993  39.1813833  75.0211313  56.0986993  41.6543833  84.0741313
  55.8426993  42.4853833  83.9991313  55.4346993  41.2713833  84.4911313
  55.9626993  41.7203833  84.1251313  56.0086993  51.3643833  81.9741313
  55.4166993  51.9223833  81.6611313  56.4346993  51.0953833  81.2621313
  55.9846993  51.4063833  81.8231313  61.8486993  49.2083833  79.4541313
  61.2696993  48.9333833  80.0461313  62.4726993  48.5993833  79.4791313
  61.8556993  49.0783833  79.5451313  67.9916993  51.4963833  76.9761313
  68.7186993  51.9683833  77.0781313  68.2206993  50.7023833  77.2561313
  68.1336993  51.4493833  77.0331313  66.1596993  51.8883833  78.9661313
  66.3736993  52.4153833  79.6281313  66.9266993  51.7143833  78.5871313
  66.3046993  51.9403833  79.0081313  59.1276993  36.4713833  84.5651313
  58.6066993  35.8433833  84.2571313  59.7186993  36.0343833  85.0361313
  59.1386993  36.3133833  84.5891313  57.5536993  50.0343833  79.9051313
  58.2096993  49.4593833  79.9201313  57.9426993  50.7833833  79.6841313
  57.7086993  50.0593833  79.8751313  68.5986993  51.8983833  87.2711313
  69.3426993  52.3543833  87.2611313  68.4776993  51.6843833  86.4341313
  68.6906993  51.9343833  87.1461313  58.3716993  48.5213833  83.4051313
  58.7946993  48.1653833  82.7311313  58.6956993  48.0993833  84.0971313
  58.4816993  48.4063833  83.4081313  61.6026993  51.3733833  82.7011313
  62.4466993  51.4773833  82.5061313  61.3056993  52.1913833  82.7691313
  61.6836993  51.5093833  82.6821313  65.4096993  40.7703833  80.7881313
  65.6966993  40.5383833  79.9981313  66.1416993  40.8493833  81.2571313
  65.5596993  40.7473833  80.7411313  66.1316993  41.1093833  75.9091313
  66.4126993  41.8973833  76.1581313  65.3556993  41.2743833  75.5461313
  66.0586993  41.2503833  75.8921313  70.1726993  53.0833833  77.3761313
  70.8376993  52.9353833  76.8311313  70.5326993  53.0003833  78.1661313
  70.3246993  53.0493833  77.4121313  60.6006993  52.5923833  88.4411313
  60.8926993  52.5253833  89.2611313  59.9746993  51.9873833  88.3961313
  60.5516993  52.4933833  88.5561313  55.5146993  38.7493833  90.4331313
  55.5106993  39.3363833  91.0791313  56.1086993  39.0613833  89.8761313
  55.6016993  38.8823833  90.4461313  64.9906993  49.2803833  75.7251313
  64.8096993  49.8253833  76.3821313  65.7566993  49.5703833  75.4241313
  65.0766993  49.4043833  75.7781313  68.4976993  37.1763833  76.7791313
  69.0376993  36.4943833  76.8551313  68.5596993  37.5743833  77.5531313
  68.5866993  37.1343833  76.9051313  56.4516993  38.3443833  79.3481313
  56.3376993  37.4803833  79.3791313  55.9766993  38.6383833  80.0181313
  56.3646993  38.2603833  79.4511313  58.5936993  50.7543833  87.5631313
  57.8956993  50.2463833  87.6891313  58.8536993  50.5493833  86.7551313
  58.5286993  50.6493833  87.4621313  65.7556993  39.5523833  78.0931313
  65.2476993  38.8903833  77.8391313  65.8076993  40.0563833  77.3831313
  65.6886993  39.5293833  77.9511313  66.3046993  52.2473833  88.4731313
  67.0726993  52.1673833  88.0671313  65.7216993  52.1263833  87.8351313
  66.3316993  52.2173833  88.3191313  65.7556993  36.4933833  77.9841313
  65.3006993  36.0913833  77.3581313  66.5286993  36.6483833  77.6091313
  65.8026993  36.4573833  77.8361313  64.3536993  38.8603833  82.5061313
  64.4276993  39.4283833  81.8481313  64.4746993  39.3523833  83.2161313
  64.3816993  39.0173833  82.5141313  69.5786993  48.6953833  80.9181313
  70.2796993  48.2133833  81.1071313  68.9186993  48.1263833  80.9631313
  69.5846993  48.5403833  80.9521313  59.9546993  49.6053833  90.1301313
  60.7956993  49.6683833  89.9081313  59.9176993  50.0023833  90.9061313
  60.0736993  49.6733833  90.2121313  58.9616993  34.6833833  80.8541313
  59.4976993  35.3713833  80.8441313  58.9646993  34.4093833  80.0261313
  59.0406993  34.7443833  80.7301313  61.9176993  45.1163833  84.8791313
  62.0896993  44.9063833  85.7081313  61.2626993  44.5823833  84.6631313
  61.8466993  45.0063833  84.9701313  68.1456993  39.0303833  88.3941313
  68.0506993  39.3493833  89.2001313  67.5526993  38.3913833  88.3561313
  68.0436993  38.9823833  88.5081313  62.6676993  45.0543833  87.4691313
  62.7206993  45.9013833  87.6711313  62.3826993  44.6843833  88.2061313
  62.6336993  45.1243833  87.6071313  68.8446993  45.7493833  86.5991313
  68.3306993  45.3373833  87.1701313  68.7186993  46.5933833  86.7801313
  68.7506993  45.8133833  86.7101313  69.4016993  34.9743833  81.2301313
  69.4506993  34.6563833  82.0411313  69.7246993  34.3303833  80.7371313
  69.4566993  34.8323833  81.2771313  59.4096993  38.4933833  82.5081313
  59.6816993  38.0633833  81.8001313  59.2336993  37.8573833  83.0791313
  59.4236993  38.3363833  82.4881313  59.2336993  45.9203833  82.0571313
  60.0846993  45.8403833  81.8841313  58.8766993  45.2383833  81.6451313
  59.3066993  45.8073833  81.9701313  58.0006993  52.6453833  83.2941313
  57.3276993  52.1473833  83.0491313  58.4036993  52.8303833  82.5431313
  57.9606993  52.5993833  83.1471313  57.5506993  39.5953833  85.5901313
  58.3936993  39.8153833  85.5471313  57.1616993  40.1683833  85.0591313
  57.6176993  39.7123833  85.5051313  69.9926993  42.7253833  76.3111313
  69.7726993  43.4563833  75.8891313  69.5446993  42.7763833  77.0581313
  69.8936993  42.8403833  76.3591313  61.6016993  45.9273833  80.2921313
  62.3146993  46.4223833  80.3821313  61.8236993  45.3603833  79.6661313
  61.7396993  45.9163833  80.2131313  55.7576993  47.5703833  83.6121313
  55.0906993  48.0583833  83.8881313  56.4376993  48.1153833  83.6411313
  55.7596993  47.7223833  83.6571313  55.8236993  44.2543833  78.7151313
  55.6386993  43.4153833  78.8671313  56.4826993  44.2183833  78.1451313
  55.8936993  44.1253833  78.6531313  66.1246993  49.6303833  82.6191313
  65.6016993  50.2643833  82.3261313  66.4346993  49.2663833  81.8901313
  66.0926993  49.6703833  82.4681313  55.9956993  48.4183833  78.2901313
  56.5476993  48.9873833  78.6541313  55.7636993  47.9033833  78.9551313
  56.0426993  48.4263833  78.4421313  60.1996993  47.4183833  85.3791313
  60.6666993  47.7073833  86.0571313  60.7716993  46.9403833  84.9251313
  60.3536993  47.3903833  85.4121313  68.6356993  39.4323833  83.1161313
  68.9796993  39.5843833  83.9031313  68.1826993  38.6943833  83.2291313
  68.6196993  39.3453833  83.2491313  55.8256993  46.8673833  75.9181313
  56.5816993  46.4353833  75.9761313  55.8406993  47.3993833  76.6091313
  55.9396993  46.8823833  76.0291313  56.7656993  45.0883833  83.9231313
  57.1966993  44.9593833  83.1761313  56.5606993  45.9363833  83.8971313
  56.7986993  45.1943833  83.8091313  63.1116993  38.6523833  77.5731313
  63.1096993  38.5353833  76.7081313  62.9306993  39.5003833  77.6651313
  63.0846993  38.7603833  77.4591313  60.8496993  48.6043833  82.2051313
  60.9756993  49.4473833  82.3921313  61.5176993  48.2053833  82.6011313
  60.9676993  48.6703833  82.2911313  59.4646993  41.4843833  77.2071313
  59.3366993  41.0363833  77.9451313  58.8826993  41.1423833  76.6551313
  59.3596993  41.3673833  77.2351313  59.6316993  43.3143833  83.8061313
  58.8506993  43.2553833  83.4231313  59.7036993  42.5623833  84.2431313
  59.5266993  43.1953833  83.8141313  60.0616993  43.0513833  87.2741313
  60.0866993  42.3763833  86.7231313  59.4156993  43.5473833  86.9621313
  59.9706993  43.0243833  87.1471313  69.9566993  40.7643833  85.6701313
  69.2946993  41.0923833  86.1331313  70.1436993  41.3983833  85.1011313
  69.8866993  40.9063833  85.6541313  64.1616993  51.8283833  86.6661313
  63.8846993  51.1873833  86.1431313  63.9536993  52.5543833  86.2281313
  64.0906993  51.8413833  86.5241313  66.6016993  36.6703833  89.0991313
  66.7506993  35.8453833  88.8561313  66.9806993  36.7253833  89.8831313
  66.6796993  36.5563833  89.1791313  68.1496993  38.7333833  79.1811313
  68.6396993  39.4503833  79.1041313  67.3596993  38.9943833  78.9181313
  68.1056993  38.8773833  79.1311313  69.4636993  46.6113833  91.0911313
  69.9476993  47.3293833  91.1891313  69.8576993  46.1843833  90.4401313
  69.5936993  46.6543833  91.0091313  64.7316993  40.2033833  84.9061313
  65.2116993  40.9023833  85.1141313  65.1046993  39.5563833  85.3571313
  64.8576993  40.2113833  85.0031313  66.9206993  43.3723833  77.1801313
  66.9126993  44.0943833  76.6901313  66.2816993  43.5073833  77.7571313
  66.8256993  43.4993833  77.1931313  67.9376993  50.3083833  85.0051313
  67.3346993  50.0123833  84.4481313  68.4826993  50.7603833  84.4961313
  67.9286993  50.3313833  84.8471313  67.9506993  47.1593833  84.4051313
  67.1536993  47.3833833  84.6791313  68.2086993  46.5653833  84.9901313
  67.8706993  47.1043833  84.5321313  61.8426993  51.9713833  78.8531313
  61.6956993  51.1953833  79.2241313  62.5316993  51.8243833  78.3381313
  61.9226993  51.8343833  78.8321313  61.5136993  35.7143833  76.8411313
  61.6106993  35.6073833  77.7021313  60.8056993  36.2203833  76.7761313
  61.4236993  35.7733833  76.9591313  64.1346993  51.4873833  77.2551313
  64.7566993  51.6503833  77.8451313  64.1706993  52.1783833  76.7231313
  64.2316993  51.6133833  77.2641313  58.6356993  44.0213833  78.0841313
  58.9596993  43.2423833  77.8621313  59.2816993  44.3893833  78.5391313
  58.7786993  43.9603833  78.1181313  66.9416993  44.9633833  88.8511313
  66.7866993  45.5733833  89.4551313  67.4756993  44.4053833  89.2571313
  66.9976993  44.9713833  89.0001313  55.6326993  35.6823833  79.0521313
  55.7616993  34.9743833  78.5601313  55.2656993  35.3643833  79.7771313
  55.5976993  35.5303833  79.0871313  65.3256993  43.3633833  79.5091313
  65.3846993  44.0133833  80.0881313  65.1366993  42.6673833  80.0001313
  65.3066993  43.3563833  79.6671313  70.5516993  47.6923833  85.3781313
  70.0726993  47.9903833  84.7121313  70.1956993  46.9163833  85.5561313
  70.4286993  47.6213833  85.3061313  59.8216993  37.8803833  76.0211313
  59.3106993  37.9333833  75.3151313  60.6056993  38.1203833  75.7251313
  59.8616993  37.9233833  75.8731313  64.5486993  45.4103833  83.9401313
  63.7016993  45.2163833  84.0211313  64.8726993  45.2453833  84.7331313
  64.4706993  45.3573833  84.0691313  61.3006993  52.1403833  74.8261313
  61.7396993  51.4433833  75.1141313  61.5076993  52.7643833  75.3991313
  61.3966993  52.1293833  74.9531313  58.3966993  45.1033833  86.2561313
  59.1186993  45.5913833  86.2191313  58.1266993  45.0733833  85.4271313
  58.4636993  45.1713833  86.1281313  61.6266993  40.2743833  82.9911313
  62.4726993  40.0843833  83.0891313  61.2566993  39.4973833  82.8531313
  61.6966993  40.1313833  82.9851313  56.4476993  41.6123833  79.6461313
  56.9366993  41.3203833  80.3071313  56.5766993  41.0193833  79.0191313
  56.5386993  41.4813833  79.6511313  60.9726993  43.0463833  75.1321313
  60.3626993  42.6413833  75.6061313  60.5866993  43.1643833  74.3591313
  60.8256993  43.0033833  75.0881313  57.7916993  46.1553833  90.5341313
  57.3706993  45.6373833  89.9731313  57.4396993  46.9413833  90.3911313
  57.6776993  46.1953833  90.4301313  62.4276993  41.5073833  77.8421313
  62.6996993  42.3333833  77.9091313  61.5646993  41.5823833  77.7461313
  62.3406993  41.6403833  77.8371313  55.9076993  37.4773833  84.3781313
  55.9516993  37.8213833  83.5771313  56.6626993  37.7143833  84.7451313
  56.0256993  37.5633833  84.3141313  70.4746993  48.9413833  76.4451313
  70.8086993  48.1353833  76.4801313  69.7196993  48.8693833  76.8751313
  70.4126993  48.8113833  76.5141313  70.9566993  40.7753833  82.1041313
  70.2116993  40.4523833  82.4221313  70.9586993  41.6013833  82.3841313
  70.8466993  40.8493833  82.1921313  67.8486993  46.8163833  75.8481313
  68.5326993  46.3023833  75.6791313  67.4316993  46.8623833  75.0831313
  67.8876993  46.7473833  75.7101313  62.5306993  47.9663833  87.1521313
  62.2326993  48.5583833  87.7191313  62.5856993  48.4083833  86.4031313
  62.4946993  48.1193833  87.1251313  60.5096993  46.9163833  90.5501313
  59.7036993  46.6263833  90.7171313  60.4206993  47.7843833  90.5561313
  60.3776993  47.0013833  90.5751313  69.8686993  37.1053833  89.5651313
  70.6126993  37.5573833  89.5021313  69.3026993  37.5753833  89.0961313
  69.8956993  37.2423833  89.4871313  65.0466993  44.3893833  86.6431313
  65.5226993  44.7633833  87.2711313  64.2236993  44.5233833  86.9021313
  64.9956993  44.4643833  86.7741313  61.7566993  39.9923833  89.3841313
  61.9176993  39.2483833  89.8111313  61.7116993  39.7433833  88.5491313
  61.7736993  39.8453833  89.3241313  64.3106993  51.7823833  81.8711313
  64.8566993  52.4613833  81.9251313  63.9606993  51.8643833  81.0761313
  64.3396993  51.8953833  81.7611313  63.5086993  35.8003833  89.2641313
  64.2136993  36.1203833  88.8621313  63.7496993  34.9933833  89.4911313
  63.6476993  35.7283833  89.2381313  62.4936993  50.0103833  85.2601313
  61.8696993  50.5923833  85.0781313  62.7416993  49.7243833  84.4741313
  62.4376993  50.0543833  85.1171313  64.0876993  44.7863833  75.1751313
  63.2826993  44.6093833  74.8901313  64.0546993  45.6373833  75.3671313
  63.9636993  44.8853833  75.1621313  60.0176993  40.8533833  85.3251313
  60.4576993  40.7503833  84.5791313  60.5626993  40.5403833  85.9301313
  60.1626993  40.7923833  85.3041313  67.7216993  41.4923833  87.2151313
  68.0236993  41.9123833  87.9181313  67.7576993  40.6523833  87.4471313
  67.7716993  41.4303833  87.3531313  70.2696993  40.9393833  79.4671313
  70.4766993  40.7383833  80.2911313  71.0256993  41.2073833  79.1251313
  70.4116993  40.9493833  79.5381313  63.5646993  35.8383833  85.3721313
  62.7386993  35.6893833  85.6091313  63.5246993  35.8733833  84.5011313
  63.4366993  35.8213833  85.2781313  65.2056993  46.8783833  90.1601313
  64.4106993  46.8143833  90.5111313  65.2766993  47.7253833  89.9651313
  65.0986993  46.9933833  90.1831313  61.0356993  53.0853833  85.4771313
  61.0466993  53.1443833  86.3471313  60.6106993  52.3383833  85.3271313
  60.9746993  52.9833833  85.5831313  59.1936993  38.9803833  78.6321313
  59.3196993  38.6513833  77.8341313  58.3816993  38.7313833  78.8311313
  59.0926993  38.8953833  78.5441313  67.9506993  46.1333833  81.6761313
  68.0266993  46.4743833  82.4751313  68.1196993  45.2863833  81.7971313
  67.9866993  46.0583833  81.8121313  65.4726993  45.4073833  81.2411313
  65.1746993  45.0923833  81.9981313  66.1676993  45.8803833  81.4761313
  65.5316993  45.4303833  81.3881313  65.6946993  49.5253833  89.2681313
  66.3816993  49.4113833  89.7931313  65.8286993  50.3163833  88.9241313
  65.8156993  49.6253833  89.2951313  68.3836993  42.7993833  89.6551313
  68.1286993  42.0803833  90.0771313  69.2046993  42.9153833  89.9251313
  68.4676993  42.7103833  89.7571313  57.7996993  52.5833833  90.9191313
  57.1456993  52.0143833  91.0171313  57.4246993  53.3563833  91.0701313
  57.6476993  52.6133833  90.9561313  69.4016993  52.3633833  83.7711313
  68.9506993  53.0063833  84.1501313  70.1096993  52.2843833  84.2761313
  69.4396993  52.4463833  83.9021313  66.1026993  47.4533833  86.7011313
  65.4086993  47.8553833  87.0441313  66.7796993  47.8863833  87.0401313
  66.0996993  47.5763833  86.8021313  59.1706993  40.9913833  89.0481313
  59.5456993  41.6103833  88.5611313  59.8446993  40.5173833  89.3331313
  59.3256993  41.0133833  89.0181313  56.9456993  39.4393833  88.3231313
  57.0226993  39.2703833  87.4701313  57.6916993  39.8453833  88.5201313
  57.0666993  39.4743833  88.2261313  59.4996993  36.8493833  90.7341313
  59.4186993  36.0053833  90.9401313  59.1856993  36.8933833  89.9211313
  59.4416993  36.7313833  90.6441313  66.4246993  49.0443833  79.8701313
  66.2196993  49.8773833  79.7111313  65.6496993  48.6623833  79.9921313
  66.2796993  49.1113833  79.8651313  56.3426993  44.6653833  88.5471313
  56.6626993  44.8843833  87.7661313  56.2426993  43.8003833  88.4921313
  56.3746993  44.5703833  88.4241313  57.7986993  40.6013833  75.1651313
  57.1266993  40.6153833  75.7211313  57.8936993  39.7533833  74.9811313
  57.7136993  40.4783833  75.2201313  66.4796993  37.2153833  82.7551313
  65.7796993  37.7333833  82.6991313  66.5176993  36.8353833  81.9711313
  66.3816993  37.2363833  82.6311313  61.7866993  49.3063833  76.2791313
  62.2276993  49.3863833  77.0271313  60.9816993  49.0903833  76.5371313
  61.7326993  49.2863833  76.4281313  70.0776993  37.7313833  85.5551313
  70.9326993  37.8303833  85.7001313  69.7086993  38.2843833  86.1201313
  70.1496993  37.8283833  85.6601313  61.1056993  43.9573833  89.9321313
  60.7096993  44.7313833  90.0071313  60.6996993  43.5843833  89.2561313
  60.9876993  44.0163833  89.8431313  70.3816993  43.0113833  84.0461313
  71.0476993  43.5523833  84.2061313  70.0366993  43.3223833  83.3071313
  70.4286993  43.1373833  83.9611313  59.1156993  48.3763833  76.8801313
  58.8716993  48.0693833  77.6601313  59.0826993  47.6733833  76.3641313
  59.0746993  48.2273833  76.9191313  61.9346993  46.6213833  75.6231313
  61.1166993  46.3533833  75.7631313  61.9066993  47.4733833  75.8081313
  61.8096993  46.7083833  75.6711313  61.5346993  36.9343833  87.3821313
  60.6706993  37.0183833  87.4621313  61.7546993  36.4203833  88.0511313
  61.4396993  36.8713833  87.4931313  65.6376993  37.6823833  85.7561313
  64.9006993  37.2283833  85.8691313  66.2086993  37.2803833  86.2791313
  65.6126993  37.5553833  85.8501313  68.3696993  48.5303833  87.5441313
  68.5756993  48.8313833  88.3361313  68.3086993  49.2523833  87.0591313
  68.3906993  48.6813833  87.5891313  63.1406993  42.0113833  90.9601313
  62.8186993  41.4353833  90.3901313  62.7816993  42.7663833  90.7141313
  63.0406993  42.0373833  90.8401313  63.9366993  35.2633833  75.5871313
  64.0146993  35.5103833  74.7541313  63.1936993  35.6403833  75.8451313
  63.8386993  35.3553833  75.5021313  58.7546993  37.0173833  88.0301313
  58.4116993  36.2503833  87.7961313  58.0596993  37.5413833  88.0941313
  58.6016993  36.9813833  88.0051313  67.8006993  35.8733833  85.0071313
  68.4706993  36.4173833  85.1341313  67.2976993  36.2973833  84.4341313
  67.8256993  36.0163833  84.9411313  67.1596993  41.6813833  82.5001313
  67.7106993  41.0743833  82.8001313  66.7346993  41.9443833  83.2151313
  67.1786993  41.6303833  82.6491313  57.4076993  40.3313833  81.9861313
  57.0396993  40.6333833  82.7171313  57.9416993  39.7023833  82.2701313
  57.4316993  40.2833833  82.1361313  57.0956993  48.7393833  89.4971313
  56.5216993  49.1553833  90.0061313  57.8286993  49.2043833  89.5921313
  57.1196993  48.8693833  89.5861313  69.1296993  43.5123833  79.0621313
  69.1976993  42.6623833  79.2431313  68.3066993  43.5983833  78.7841313
  69.0176993  43.3993833  79.0481313  58.8816993  52.0063833  78.2721313
  58.7366993  52.1623833  77.4261313  59.7476993  52.0853833  78.3501313
  58.9886993  52.0413833  78.1591313  63.0486993  44.4033833  78.0001313
  63.1486993  44.5423833  77.1451313  63.8666993  44.3433833  78.2961313
  63.1836993  44.4143833  77.9171313  68.2836993  48.7323833  77.8021313
  68.0326993  48.6043833  78.6281313  67.9666993  48.0373833  77.3811313
  68.1996993  48.6113833  77.8621313  62.1876993  37.3783833  91.1161313
  62.4216993  36.8023833  90.5031313  61.3456993  37.1973833  91.2571313
  62.0976993  37.2663833  91.0461313  59.5686993  50.8213833  84.7491313
  59.4896993  50.0113833  84.4331313  59.1246993  51.3083833  84.1771313
  59.4916993  50.7733833  84.6181313  65.1696993  46.9403833  77.2321313
  65.8866993  46.5933833  76.8761313  65.1356993  47.7403833  76.8841313
  65.2706993  47.0073833  77.1281313  57.1406993  53.0653833  88.3301313
  57.6336993  53.0093833  89.0481313  57.3286993  52.3323833  87.8951313
  57.2416993  52.9483833  88.3721313  66.5786993  35.5813833  61.4708903
  66.3336993  36.0693833  60.7908903  67.4416993  35.5083833  61.3708903
  66.6696993  35.6423833  61.3558903  66.3876993  42.4973833  66.1418903
  65.8636993  43.0933833  66.5048903  66.7846993  42.1293833  66.8258903
  66.3686993  42.5313833  66.2968903  56.2566993  46.6373833  61.5978903
  55.8156993  46.7553833  62.3408903  55.9736993  45.8623833  61.3128903
  56.1496993  46.5403833  61.6658903  55.9996993  40.4293833  58.1048903
  55.2216993  40.5913833  57.7448903  56.0386993  39.5583833  58.1268903
  55.8906993  40.3243833  58.0548903  59.1386993  45.6923833  56.7768903
  58.7466993  45.3213833  56.0908903  59.0586993  45.0943833  57.4058903
  59.0686993  45.5493833  56.7678903  69.0586993  43.5643833  62.8178903
  69.1386993  43.5683833  61.9488903  68.4746993  42.9323833  62.9668903
  68.9836993  43.4713833  62.7118903  58.7656993  47.3333833  60.6768903
  59.3736993  47.1633833  61.2798903  58.0146993  47.1933833  61.0978903
  58.7446993  47.2873833  60.8278903  63.0476993  36.6683833  60.6258903
  62.9776993  37.3453833  60.0798903  63.7886993  36.2803833  60.3768903
  63.1466993  36.7113833  60.5078903  57.6566993  50.4243833  56.7538903
  58.1236993  50.5083833  56.0218903  58.1116993  49.8463833  57.2228903
  57.7926993  50.3513833  56.7148903  56.1966993  49.3723833  67.8528903
  56.3256993  49.0923833  68.6688903  55.5866993  48.8313833  67.5438903
  56.1256993  49.2513833  67.9278903  62.7706993  46.8973833  72.9198903
  62.5346993  46.8943833  73.7598903  62.0226993  46.7493833  72.4958903
  62.6246993  46.8743833  72.9808903  57.6426993  43.8933833  62.0548903
  57.1806993  43.5013833  61.4278903  58.3426993  43.3803833  62.1468903
  57.6776993  43.7603833  61.9758903  62.1506993  39.5033833  67.4018903
  62.8286993  39.5213833  66.8528903  62.1056993  38.6673833  67.6468903
  62.2436993  39.3823833  67.3568903  62.7526993  50.0893833  70.1828903
  62.8906993  50.8493833  69.7758903  63.5436993  49.7243833  70.2098903
  62.8896993  50.1483833  70.1268903  59.6436993  41.9933833  62.0778903
  60.4606993  41.8063833  62.3208903  59.1666993  41.3793833  62.4738903
  59.6936993  41.8753833  62.1728903  63.8476993  47.9743833  64.6878903
  64.1956993  47.1753833  64.7178903  64.5126993  48.4783833  64.4328903
  63.9976993  47.9303833  64.6548903  63.9046993  47.4233833  60.8988903
  64.2356993  46.7793833  61.3848903  64.1446993  47.2123833  60.0878903
  63.9886993  47.2973833  60.8508903  65.8726993  41.5543833  72.2378903
  65.0246993  41.4553833  72.0598903  65.9016993  42.2993833  72.6918903
  65.7516993  41.6503833  72.2788903  60.2406993  37.0873833  61.3438903
  59.9446993  37.5883833  60.6938903  61.1076993  37.1653833  61.2868903
  60.3246993  37.1733833  61.2398903  70.4306993  34.5143833  71.3518903
  70.2726993  35.2833833  70.9698903  69.6586993  34.2943833  71.6958903
  70.2926993  34.5953833  71.3468903  63.2196993  36.2293833  63.5668903
  63.2926993  37.0893833  63.6958903  63.1816993  36.1543833  62.6988903
  63.2246993  36.3453833  63.4578903  67.8926993  39.1553833  55.8658903
  67.4426993  39.8363833  56.1728903  68.0066993  38.6513833  56.5688903
  67.8436993  39.1813833  56.0148903  56.0986993  41.6543833  65.0678903
  55.8426993  42.4853833  64.9928903  55.4346993  41.2713833  65.4848903
  55.9626993  41.7203833  65.1188903  56.0086993  51.3643833  62.9678903
  55.4166993  51.9223833  62.6548903  56.4346993  51.0953833  62.2558903
  55.9846993  51.4063833  62.8168903  61.8486993  49.2083833  60.4478903
  61.2696993  48.9333833  61.0398903  62.4726993  48.5993833  60.4728903
  61.8556993  49.0783833  60.5388903  67.9916993  51.4963833  57.9698903
  68.7186993  51.9683833  58.0718903  68.2206993  50.7023833  58.2498903
  68.1336993  51.4493833  58.0268903  66.1596993  51.8883833  59.9598903
  66.3736993  52.4153833  60.6218903  66.9266993  51.7143833  59.5808903
  66.3046993  51.9403833  60.0018903  59.1276993  36.4713833  65.5588903
  58.6066993  35.8433833  65.2508903  59.7186993  36.0343833  66.0298903
  59.1386993  36.3133833  65.5828903  62.4336993  38.6043833  74.8568903
  62.5506993  38.1503833  74.1208903  62.7216993  39.4023833  74.6538903
  62.4936993  38.6553833  74.7178903  57.5536993  50.0343833  60.8988903
  58.2096993  49.4593833  60.9138903  57.9426993  50.7833833  60.6778903
  57.7086993  50.0593833  60.8688903  68.5986993  51.8983833  68.2648903
  69.3426993  52.3543833  68.2548903  68.4776993  51.6843833  67.4278903
  68.6906993  51.9343833  68.1398903  58.1666993  38.2013833  73.8408903
  57.3886993  37.8113833  73.7688903  58.6576993  37.7893833  73.2498903
  58.1236993  38.0823833  73.7428903  58.3716993  48.5213833  64.3988903
  58.7946993  48.1653833  63.7248903  58.6956993  48.0993833  65.0908903
  58.4816993  48.4063833  64.4018903  61.6026993  51.3733833  63.6948903
  62.4466993  51.4773833  63.4998903  61.3056993  52.1913833  63.7628903
  61.6836993  51.5093833  63.6758903  64.8156993  35.8443833  73.0088903
  64.9936993  35.0353833  72.7338903  64.6726993  36.2853833  72.2698903
  64.8206993  35.7903833  72.8588903  65.4096993  40.7703833  61.7818903
  65.6966993  40.5383833  60.9918903  66.1416993  40.8493833  62.2508903
  65.5596993  40.7473833  61.7348903  66.1316993  41.1093833  56.9028903
  66.4126993  41.8973833  57.1518903  65.3556993  41.2743833  56.5398903
  66.0586993  41.2503833  56.8858903  70.1726993  53.0833833  58.3698903
  70.8376993  52.9353833  57.8248903  70.5326993  53.0003833  59.1598903
  70.3246993  53.0493833  58.4058903  60.6006993  52.5923833  69.4348903
  60.8926993  52.5253833  70.2548903  59.9746993  51.9873833  69.3898903
  60.5516993  52.4933833  69.5498903  55.5146993  38.7493833  71.4268903
  55.5106993  39.3363833  72.0728903  56.1086993  39.0613833  70.8698903
  55.6016993  38.8823833  71.4398903  67.8526993  49.0833833  71.9688903
  67.8186993  49.4653833  72.7528903  68.7066993  49.0413833  71.7978903
  67.9736993  49.1333833  72.0598903  64.9906993  49.2803833  56.7188903
  64.8096993  49.8253833  57.3758903  65.7566993  49.5703833  56.4178903
  65.0766993  49.4043833  56.7718903  68.4976993  37.1763833  57.7728903
  69.0376993  36.4943833  57.8488903  68.5596993  37.5743833  58.5468903
  68.5866993  37.1343833  57.8988903  56.4516993  38.3443833  60.3418903
  56.3376993  37.4803833  60.3728903  55.9766993  38.6383833  61.0118903
  56.3646993  38.2603833  60.4448903  58.5936993  50.7543833  68.5568903
  57.8956993  50.2463833  68.6828903  58.8536993  50.5493833  67.7488903
  58.5286993  50.6493833  68.4558903  65.7556993  39.5523833  59.0868903
  65.2476993  38.8903833  58.8328903  65.8076993  40.0563833  58.3768903
  65.6886993  39.5293833  58.9448903  66.3046993  52.2473833  69.4668903
  67.0726993  52.1673833  69.0608903  65.7216993  52.1263833  68.8288903
  66.3316993  52.2173833  69.3128903  65.7556993  36.4933833  58.9778903
  65.3006993  36.0913833  58.3518903  66.5286993  36.6483833  58.6028903
  65.8026993  36.4573833  58.8298903  64.3536993  38.8603833  63.4998903
  64.4276993  39.4283833  62.8418903  64.4746993  39.3523833  64.2098903
  64.3816993  39.0173833  63.5078903  69.5786993  48.6953833  61.9118903
  70.2796993  48.2133833  62.1008903  68.9186993  48.1263833  61.9568903
  69.5846993  48.5403833  61.9458903  59.9546993  49.6053833  71.1238903
  60.7956993  49.6683833  70.9018903  59.9176993  50.0023833  71.8998903
  60.0736993  49.6733833  71.2058903  58.9616993  34.6833833  61.8478903
  59.4976993  35.3713833  61.8378903  58.9646993  34.4093833  61.0198903
  59.0406993  34.7443833  61.7238903  61.9176993  45.1163833  65.8728903
  62.0896993  44.9063833  66.7018903  61.2626993  44.5823833  65.6568903
  61.8466993  45.0063833  65.9638903  68.1456993  39.0303833  69.3878903
  68.0506993  39.3493833  70.1938903  67.5526993  38.3913833  69.3498903
  68.0436993  38.9823833  69.5018903  62.6676993  45.0543833  68.4628903
  62.7206993  45.9013833  68.6648903  62.3826993  44.6843833  69.1998903
  62.6336993  45.1243833  68.6008903  68.8446993  45.7493833  67.5928903
  68.3306993  45.3373833  68.1638903  68.7186993  46.5933833  67.7738903
  68.7506993  45.8133833  67.7038903  69.4016993  34.9743833  62.2238903
  69.4506993  34.6563833  63.0348903  69.7246993  34.3303833  61.7308903
  69.4566993  34.8323833  62.2708903  55.4886993  49.4253833  74.6738903
  56.2446993  49.7743833  74.9318903  55.6656993  48.5723833  74.6168903
  55.6266993  49.3503833  74.7038903  59.4096993  38.4933833  63.5018903
  59.6816993  38.0633833  62.7938903  59.2336993  37.8573833  64.0728903
  59.4236993  38.3363833  63.4818903  59.2336993  45.9203833  63.0508903
  60.0846993  45.8403833  62.8778903  58.8766993  45.2383833  62.6388903
  59.3066993  45.8073833  62.9638903  58.0006993  52.6453833  64.2878903
  57.3276993  52.1473833  64.0428903  58.4036993  52.8303833  63.5368903
  57.9606993  52.5993833  64.1408903  57.5506993  39.5953833  66.5838903
  58.3936993  39.8153833  66.5408903  57.1616993  40.1683833  66.0528903
  57.6176993  39.7123833  66.4988903  69.9926993  42.7253833  57.3048903
  69.7726993  43.4563833  56.8828903  69.5446993  42.7763833  58.0518903
  69.8936993  42.8403833  57.3528903  61.6016993  45.9273833  61.2858903
  62.3146993  46.4223833  61.3758903  61.8236993  45.3603833  60.6598903
  61.7396993  45.9163833  61.2068903  55.7576993  47.5703833  64.6058903
  55.0906993  48.0583833  64.8818903  56.4376993  48.1153833  64.6348903
  55.7596993  47.7223833  64.6508903  63.4046993  41.2803833  74.7018903
  62.9206993  41.8573833  75.1438903  63.3766993  41.5753833  73.8808903
  63.3286993  41.4093833  74.6458903  55.8236993  44.2543833  59.7088903
  55.6386993  43.4153833  59.8608903  56.4826993  44.2183833  59.1388903
  55.8936993  44.1253833  59.6468903  66.1246993  49.6303833  63.6128903
  65.6016993  50.2643833  63.3198903  66.4346993  49.2663833  62.8838903
  66.0926993  49.6703833  63.4618903  55.9956993  48.4183833  59.2838903
  56.5476993  48.9873833  59.6478903  55.7636993  47.9033833  59.9488903
  56.0426993  48.4263833  59.4358903  60.1996993  47.4183833  66.3728903
  60.6666993  47.7073833  67.0508903  60.7716993  46.9403833  65.9188903
  60.3536993  47.3903833  66.4058903  68.6356993  39.4323833  64.1098903
  68.9796993  39.5843833  64.8968903  68.1826993  38.6943833  64.2228903
  68.6196993  39.3453833  64.2428903  55.8256993  46.8673833  56.9118903
  56.5816993  46.4353833  56.9698903  55.8406993  47.3993833  57.6028903
  55.9396993  46.8823833  57.0228903  56.7656993  45.0883833  64.9168903
  57.1966993  44.9593833  64.1698903  56.5606993  45.9363833  64.8908903
  56.7986993  45.1943833  64.8028903  63.1116993  38.6523833  58.5668903
  63.1096993  38.5353833  57.7018903  62.9306993  39.5003833  58.6588903
  63.0846993  38.7603833  58.4528903  60.8496993  48.6043833  63.1988903
  60.9756993  49.4473833  63.3858903  61.5176993  48.2053833  63.5948903
  60.9676993  48.6703833  63.2848903  58.9796993  42.0873833  73.0608903
  58.4436993  41.5813833  73.5288903  58.9996993  41.6973833  72.2808903
  58.9026993  41.9543833  73.0148903  59.4646993  41.4843833  58.2008903
  59.3366993  41.0363833  58.9388903  58.8826993  41.1423833  57.6488903
  59.3596993  41.3673833  58.2288903  59.6316993  43.3143833  64.7998903
  58.8506993  43.2553833  64.4168903  59.7036993  42.5623833  65.2368903
  59.5266993  43.1953833  64.8078903  60.0616993  43.0513833  68.2678903
  60.0866993  42.3763833  67.7168903  59.4156993  43.5473833  67.9558903
  59.9706993  43.0243833  68.1408903  69.9566993  40.7643833  66.6638903
  69.2946993  41.0923833  67.1268903  70.1436993  41.3983833  66.0948903
  69.8866993  40.9063833  66.6478903  64.1616993  51.8283833  67.6598903
  63.8846993  51.1873833  67.1368903  63.9536993  52.5543833  67.2218903
  64.0906993  51.8413833  67.5178903  66.6016993  36.6703833  70.0928903
  66.7506993  35.8453833  69.8498903  66.9806993  36.7253833  70.8768903
  66.6796993  36.5563833  70.1728903  68.1496993  38.7333833  60.1748903
  68.6396993  39.4503833  60.0978903  67.3596993  38.9943833  59.9118903
  68.1056993  38.8773833  60.1248903  57.8606993  44.4063833  73.8268903
  57.8236993  44.9073833  73.1128903  58.1916993  43.6543833  73.5318903
  57.9036993  44.3683833  73.6778903  69.4636993  46.6113833  72.0848903
  69.9476993  47.3293833  72.1828903  69.8576993  46.1843833  71.4338903
  69.5936993  46.6543833  72.0028903  63.7596993  49.4563833  73.2618903
  64.1136993  49.2783833  74.0388903  63.3236993  48.7273833  73.0628903
  63.7476993  49.3223833  73.3478903  64.7316993  40.2033833  65.8998903
  65.2116993  40.9023833  66.1078903  65.1046993  39.5563833  66.3508903
  64.8576993  40.2113833  65.9968903  66.9206993  43.3723833  58.1738903
  66.9126993  44.0943833  57.6838903  66.2816993  43.5073833  58.7508903
  66.8256993  43.4993833  58.1868903  67.9376993  50.3083833  65.9988903
  67.3346993  50.0123833  65.4418903  68.4826993  50.7603833  65.4898903
  67.9286993  50.3313833  65.8408903  67.9506993  47.1593833  65.3988903
  67.1536993  47.3833833  65.6728903  68.2086993  46.5653833  65.9838903
  67.8706993  47.1043833  65.5258903  61.8426993  51.9713833  59.8468903
  61.6956993  51.1953833  60.2178903  62.5316993  51.8243833  59.3318903
  61.9226993  51.8343833  59.8258903  61.5136993  35.7143833  57.8348903
  61.6106993  35.6073833  58.6958903  60.8056993  36.2203833  57.7698903
  61.4236993  35.7733833  57.9528903  64.1346993  51.4873833  58.2488903
  64.7566993  51.6503833  58.8388903  64.1706993  52.1783833  57.7168903
  64.2316993  51.6133833  58.2578903  67.4016993  50.5063833  74.5218903
  67.5656993  50.7893833  75.3308903  67.6646993  51.1673833  74.0168903
  67.4646993  50.6463833  74.5668903  58.6356993  44.0213833  59.0778903
  58.9596993  43.2423833  58.8558903  59.2816993  44.3893833  59.5328903
  58.7786993  43.9603833  59.1118903  66.9416993  44.9633833  69.8448903
  66.7866993  45.5733833  70.4488903  67.4756993  44.4053833  70.2508903
  66.9976993  44.9713833  69.9938903  55.6326993  35.6823833  60.0458903
  55.7616993  34.9743833  59.5538903  55.2656993  35.3643833  60.7708903
  55.5976993  35.5303833  60.0808903  65.3256993  43.3633833  60.5028903
  65.3846993  44.0133833  61.0818903  65.1366993  42.6673833  60.9938903
  65.3066993  43.3563833  60.6608903  70.5516993  47.6923833  66.3718903
  70.0726993  47.9903833  65.7058903  70.1956993  46.9163833  66.5498903
  70.4286993  47.6213833  66.2998903  59.8216993  37.8803833  57.0148903
  59.3106993  37.9333833  56.3088903  60.6056993  38.1203833  56.7188903
  59.8616993  37.9233833  56.8668903  64.5486993  45.4103833  64.9338903
  63.7016993  45.2163833  65.0148903  64.8726993  45.2453833  65.7268903
  64.4706993  45.3573833  65.0628903  61.3006993  52.1403833  55.8198903
  61.7396993  51.4433833  56.1078903  61.5076993  52.7643833  56.3928903
  61.3966993  52.1293833  55.9468903  58.3966993  45.1033833  67.2498903
  59.1186993  45.5913833  67.2128903  58.1266993  45.0733833  66.4208903
  58.4636993  45.1713833  67.1218903  61.6266993  40.2743833  63.9848903
  62.4726993  40.0843833  64.0828903  61.2566993  39.4973833  63.8468903
  61.6966993  40.1313833  63.9788903  56.4476993  41.6123833  60.6398903
  56.9366993  41.3203833  61.3008903  56.5766993  41.0193833  60.0128903
  56.5386993  41.4813833  60.6448903  60.9726993  43.0463833  56.1258903
  60.3626993  42.6413833  56.5998903  60.5866993  43.1643833  55.3528903
  60.8256993  43.0033833  56.0818903  57.7916993  46.1553833  71.5278903
  57.3706993  45.6373833  70.9668903  57.4396993  46.9413833  71.3848903
  57.6776993  46.1953833  71.4238903  62.4276993  41.5073833  58.8358903
  62.6996993  42.3333833  58.9028903  61.5646993  41.5823833  58.7398903
  62.3406993  41.6403833  58.8308903  70.4006993  38.6293833  73.4678903
  69.8756993  39.0883833  73.9918903  70.0396993  37.8343833  73.4618903
  70.2696993  38.5793833  73.5438903  55.9076993  37.4773833  65.3718903
  55.9516993  37.8213833  64.5708903  56.6626993  37.7143833  65.7388903
  56.0256993  37.5633833  65.3078903  68.8926993  42.1983833  73.5438903
  68.9656993  42.3023833  74.4068903  68.2586993  42.7563833  73.3228903
  68.8096993  42.2963833  73.6388903  70.4746993  48.9413833  57.4388903
  70.8086993  48.1353833  57.4738903  69.7196993  48.8693833  57.8688903
  70.4126993  48.8113833  57.5078903  70.9566993  40.7753833  63.0978903
  70.2116993  40.4523833  63.4158903  70.9586993  41.6013833  63.3778903
  70.8466993  40.8493833  63.1858903  67.8486993  46.8163833  56.8418903
  68.5326993  46.3023833  56.6728903  67.4316993  46.8623833  56.0768903
  67.8876993  46.7473833  56.7038903  62.5306993  47.9663833  68.1458903
  62.2326993  48.5583833  68.7128903  62.5856993  48.4083833  67.3968903
  62.4946993  48.1193833  68.1188903  60.5096993  46.9163833  71.5438903
  59.7036993  46.6263833  71.7108903  60.4206993  47.7843833  71.5498903
  60.3776993  47.0013833  71.5688903  69.8686993  37.1053833  70.5588903
  70.6126993  37.5573833  70.4958903  69.3026993  37.5753833  70.0898903
  69.8956993  37.2423833  70.4808903  65.0466993  44.3893833  67.6368903
  65.5226993  44.7633833  68.2648903  64.2236993  44.5233833  67.8958903
  64.9956993  44.4643833  67.7678903  61.7566993  39.9923833  70.3778903
  61.9176993  39.2483833  70.8048903  61.7116993  39.7433833  69.5428903
  61.7736993  39.8453833  70.3178903  64.3106993  51.7823833  62.8648903
  64.8566993  52.4613833  62.9188903  63.9606993  51.8643833  62.0698903
  64.3396993  51.8953833  62.7548903  63.5086993  35.8003833  70.2578903
  64.2136993  36.1203833  69.8558903  63.7496993  34.9933833  70.4848903
  63.6476993  35.7283833  70.2318903  62.4936993  50.0103833  66.2538903
  61.8696993  50.5923833  66.0718903  62.7416993  49.7243833  65.4678903
  62.4376993  50.0543833  66.1108903  66.8026993  46.6443833  73.2428903
  67.5596993  46.9303833  72.9168903  66.2556993  46.6963833  72.5648903
  66.8336993  46.6943833  73.0938903  70.7116993  49.1943833  71.7468903
  71.0576993  49.4643833  72.5008903  71.0056993  49.7763833  71.1668903
  70.8066993  49.3203833  71.7728903  64.0876993  44.7863833  56.1688903
  63.2826993  44.6093833  55.8838903  64.0546993  45.6373833  56.3608903
  63.9636993  44.8853833  56.1558903  60.0176993  40.8533833  66.3188903
  60.4576993  40.7503833  65.5728903  60.5626993  40.5403833  66.9238903
  60.1626993  40.7923833  66.2978903  68.0336993  39.9553833  71.9108903
  67.3856993  40.4253833  72.2588903  68.5986993  39.8663833  72.5698903
  68.0216993  40.0113833  72.0598903  67.7216993  41.4923833  68.2088903
  68.0236993  41.9123833  68.9118903  67.7576993  40.6523833  68.4408903
  67.7716993  41.4303833  68.3468903  65.1466993  51.6593833  72.1338903
  65.6246993  51.0593833  71.7178903  64.7956993  51.2163833  72.7988903
  65.1656993  51.5053833  72.1708903  70.2696993  40.9393833  60.4608903
  70.4766993  40.7383833  61.2848903  71.0256993  41.2073833  60.1188903
  70.4116993  40.9493833  60.5318903  63.5646993  35.8383833  66.3658903
  62.7386993  35.6893833  66.6028903  63.5246993  35.8733833  65.4948903
  63.4366993  35.8213833  66.2718903  65.2056993  46.8783833  71.1538903
  64.4106993  46.8143833  71.5048903  65.2766993  47.7253833  70.9588903
  65.0986993  46.9933833  71.1768903  56.1296993  36.2363833  72.4008903
  55.9896993  37.0313833  72.0698903  55.3436993  35.9933833  72.6898903
  55.9926993  36.3183833  72.3948903  61.0356993  53.0853833  66.4708903
  61.0466993  53.1443833  67.3408903  60.6106993  52.3383833  66.3208903
  60.9746993  52.9833833  66.5768903  59.1936993  38.9803833  59.6258903
  59.3196993  38.6513833  58.8278903  58.3816993  38.7313833  59.8248903
  59.0926993  38.8953833  59.5378903  67.9506993  46.1333833  62.6698903
  68.0266993  46.4743833  63.4688903  68.1196993  45.2863833  62.7908903
  67.9866993  46.0583833  62.8058903  65.4726993  45.4073833  62.2348903
  65.1746993  45.0923833  62.9918903  66.1676993  45.8803833  62.4698903
  65.5316993  45.4303833  62.3818903  65.6946993  49.5253833  70.2618903
  66.3816993  49.4113833  70.7868903  65.8286993  50.3163833  69.9178903
  65.8156993  49.6253833  70.2888903  68.3836993  42.7993833  70.6488903
  68.1286993  42.0803833  71.0708903  69.2046993  42.9153833  70.9188903
  68.4676993  42.7103833  70.7508903  57.7996993  52.5833833  71.9128903
  57.1456993  52.0143833  72.0108903  57.4246993  53.3563833  72.0638903
  57.6476993  52.6133833  71.9498903  66.3176993  43.9893833  73.8358903
  66.6406993  44.6753833  73.4038903  65.6136993  44.3123833  74.2378903
  66.2606993  44.1383833  73.8308903  69.4016993  52.3633833  64.7648903
  68.9506993  53.0063833  65.1438903  70.1096993  52.2843833  65.2698903
  69.4396993  52.4463833  64.8958903  66.1026993  47.4533833  67.6948903
  65.4086993  47.8553833  68.0378903  66.7796993  47.8863833  68.0338903
  66.0996993  47.5763833  67.7958903  59.1706993  40.9913833  70.0418903
  59.5456993  41.6103833  69.5548903  59.8446993  40.5173833  70.3268903
  59.3256993  41.0133833  70.0118903  56.9456993  39.4393833  69.3168903
  57.0226993  39.2703833  68.4638903  57.6916993  39.8453833  69.5138903
  57.0666993  39.4743833  69.2198903  59.4996993  36.8493833  71.7278903
  59.4186993  36.0053833  71.9338903  59.1856993  36.8933833  70.9148903
  59.4416993  36.7313833  71.6378903  66.4246993  49.0443833  60.8638903
  66.2196993  49.8773833  60.7048903  65.6496993  48.6623833  60.9858903
  66.2796993  49.1113833  60.8588903  56.3426993  44.6653833  69.5408903
  56.6626993  44.8843833  68.7598903  56.2426993  43.8003833  69.4858903
  56.3746993  44.5703833  69.4178903  57.7986993  40.6013833  56.1588903
  57.1266993  40.6153833  56.7148903  57.8936993  39.7533833  55.9748903
  57.7136993  40.4783833  56.2138903  67.4856993  37.0253833  72.8948903
  67.5776993  37.7373833  73.3888903  66.8486993  36.5803833  73.2918903
  67.4046993  37.0643833  73.0268903  66.4796993  37.2153833  63.7488903
  65.7796993  37.7333833  63.6928903  66.5176993  36.8353833  62.9648903
  66.3816993  37.2363833  63.6248903  61.7866993  49.3063833  57.2728903
  62.2276993  49.3863833  58.0208903  60.9816993  49.0903833  57.5308903
  61.7326993  49.2863833  57.4218903  70.0776993  37.7313833  66.5488903
  70.9326993  37.8303833  66.6938903  69.7086993  38.2843833  67.1138903
  70.1496993  37.8283833  66.6538903  61.1056993  43.9573833  70.9258903
  60.7096993  44.7313833  71.0008903  60.6996993  43.5843833  70.2498903
  60.9876993  44.0163833  70.8368903  70.3816993  43.0113833  65.0398903
  71.0476993  43.5523833  65.1998903  70.0366993  43.3223833  64.3008903
  70.4286993  43.1373833  64.9548903  59.1156993  48.3763833  57.8738903
  58.8716993  48.0693833  58.6538903  59.0826993  47.6733833  57.3578903
  59.0746993  48.2273833  57.9128903  61.9346993  46.6213833  56.6168903
  61.1166993  46.3533833  56.7568903  61.9066993  47.4733833  56.8018903
  61.8096993  46.7083833  56.6648903  61.5346993  36.9343833  68.3758903
  60.6706993  37.0183833  68.4558903  61.7546993  36.4203833  69.0448903
  61.4396993  36.8713833  68.4868903  65.6376993  37.6823833  66.7498903
  64.9006993  37.2283833  66.8628903  66.2086993  37.2803833  67.2728903
  65.6126993  37.5553833  66.8438903  68.3696993  48.5303833  68.5378903
  68.5756993  48.8313833  69.3298903  68.3086993  49.2523833  68.0528903
  68.3906993  48.6813833  68.5828903  67.9036993  52.7443833  72.7838903
  67.1506993  52.7263833  72.3428903  68.0716993  53.5963833  72.8678903
  67.8176993  52.8673833  72.7308903  63.1406993  42.0113833  71.9538903
  62.8186993  41.4353833  71.3838903  62.7816993  42.7663833  71.7078903
  63.0406993  42.0373833  71.8338903  63.9366993  35.2633833  56.5808903
  64.0146993  35.5103833  55.7478903  63.1936993  35.6403833  56.8388903
  63.8386993  35.3553833  56.4958903  61.5756993  52.3673833  72.2018903
  61.6166993  52.4933833  73.0648903  62.2266993  51.8073833  72.0458903
  61.6776993  52.3033833  72.3068903  58.7546993  37.0173833  69.0238903
  58.4116993  36.2503833  68.7898903  58.0596993  37.5413833  69.0878903
  58.6016993  36.9813833  68.9988903  67.8006993  35.8733833  66.0008903
  68.4706993  36.4173833  66.1278903  67.2976993  36.2973833  65.4278903
  67.8256993  36.0163833  65.9348903  59.1686993  50.7503833  73.5618903
  59.7636993  51.1813833  74.0338903  58.8046993  51.3743833  73.0728903
  59.2026993  50.9063833  73.5588903  67.1596993  41.6813833  63.4938903
  67.7106993  41.0743833  63.7938903  66.7346993  41.9443833  64.2088903
  67.1786993  41.6303833  63.6428903  57.4076993  40.3313833  62.9798903
  57.0396993  40.6333833  63.7108903  57.9416993  39.7023833  63.2638903
  57.4316993  40.2833833  63.1298903  57.0956993  48.7393833  70.4908903
  56.5216993  49.1553833  70.9998903  57.8286993  49.2043833  70.5858903
  57.1196993  48.8693833  70.5798903  69.1296993  43.5123833  60.0558903
  69.1976993  42.6623833  60.2368903  68.3066993  43.5983833  59.7778903
  69.0176993  43.3993833  60.0418903  58.8816993  52.0063833  59.2658903
  58.7366993  52.1623833  58.4198903  59.7476993  52.0853833  59.3438903
  58.9886993  52.0413833  59.1528903  63.0486993  44.4033833  58.9938903
  63.1486993  44.5423833  58.1388903  63.8666993  44.3433833  59.2898903
  63.1836993  44.4143833  58.9108903  68.2836993  48.7323833  58.7958903
  68.0326993  48.6043833  59.6218903  67.9666993  48.0373833  58.3748903
  68.1996993  48.6113833  58.8558903  62.1876993  37.3783833  72.1098903
  62.4216993  36.8023833  71.4968903  61.3456993  37.1973833  72.2508903
  62.0976993  37.2663833  72.0398903  69.8146993  44.9963833  74.5618903
  70.6856993  44.9603833  74.5258903  69.5956993  45.4163833  73.8298903
  69.9116993  45.0523833  74.4488903  59.5686993  50.8213833  65.7428903
  59.4896993  50.0113833  65.4268903  59.1246993  51.3083833  65.1708903
  59.4916993  50.7733833  65.6118903  65.1696993  46.9403833  58.2258903
  65.8866993  46.5933833  57.8698903  65.1356993  47.7403833  57.8778903
  65.2706993  47.0073833  58.1218903  57.1406993  53.0653833  69.3238903
  57.6336993  53.0093833  70.0418903  57.3286993  52.3323833  68.8888903
  57.2416993  52.9483833  69.3658903  66.5786993  35.5813833  42.4646493
  66.3336993  36.0693833  41.7846493  67.4416993  35.5083833  42.3646493
  66.6696993  35.6423833  42.3496493  66.3876993  42.4973833  47.1356493
  65.8636993  43.0933833  47.4986493  66.7846993  42.1293833  47.8196493
  66.3686993  42.5313833  47.2906493  56.2566993  46.6373833  42.5916493
  55.8156993  46.7553833  43.3346493  55.9736993  45.8623833  42.3066493
  56.1496993  46.5403833  42.6596493  55.9996993  40.4293833  39.0986493
  55.2216993  40.5913833  38.7386493  56.0386993  39.5583833  39.1206493
  55.8906993  40.3243833  39.0486493  59.1386993  45.6923833  37.7706493
  58.7466993  45.3213833  37.0846493  59.0586993  45.0943833  38.3996493
  59.0686993  45.5493833  37.7616493  69.0586993  43.5643833  43.8116493
  69.1386993  43.5683833  42.9426493  68.4746993  42.9323833  43.9606493
  68.9836993  43.4713833  43.7056493  58.7656993  47.3333833  41.6706493
  59.3736993  47.1633833  42.2736493  58.0146993  47.1933833  42.0916493
  58.7446993  47.2873833  41.8216493  63.0476993  36.6683833  41.6196493
  62.9776993  37.3453833  41.0736493  63.7886993  36.2803833  41.3706493
  63.1466993  36.7113833  41.5016493  57.6566993  50.4243833  37.7476493
  58.1236993  50.5083833  37.0156493  58.1116993  49.8463833  38.2166493
  57.7926993  50.3513833  37.7086493  56.1966993  49.3723833  48.8466493
  56.3256993  49.0923833  49.6626493  55.5866993  48.8313833  48.5376493
  56.1256993  49.2513833  48.9216493  62.7706993  46.8973833  53.9136493
  62.5346993  46.8943833  54.7536493  62.0226993  46.7493833  53.4896493
  62.6246993  46.8743833  53.9746493  57.6426993  43.8933833  43.0486493
  57.1806993  43.5013833  42.4216493  58.3426993  43.3803833  43.1406493
  57.6776993  43.7603833  42.9696493  62.1506993  39.5033833  48.3956493
  62.8286993  39.5213833  47.8466493  62.1056993  38.6673833  48.6406493
  62.2436993  39.3823833  48.3506493  62.7526993  50.0893833  51.1766493
  62.8906993  50.8493833  50.7696493  63.5436993  49.7243833  51.2036493
  62.8896993  50.1483833  51.1206493  59.6436993  41.9933833  43.0716493
  60.4606993  41.8063833  43.3146493  59.1666993  41.3793833  43.4676493
  59.6936993  41.8753833  43.1666493  63.8476993  47.9743833  45.6816493
  64.1956993  47.1753833  45.7116493  64.5126993  48.4783833  45.4266493
  63.9976993  47.9303833  45.6486493  63.9046993  47.4233833  41.8926493
  64.2356993  46.7793833  42.3786493  64.1446993  47.2123833  41.0816493
  63.9886993  47.2973833  41.8446493  65.8726993  41.5543833  53.2316493
  65.0246993  41.4553833  53.0536493  65.9016993  42.2993833  53.6856493
  65.7516993  41.6503833  53.2726493  60.2406993  37.0873833  42.3376493
  59.9446993  37.5883833  41.6876493  61.1076993  37.1653833  42.2806493
  60.3246993  37.1733833  42.2336493  70.4306993  34.5143833  52.3456493
  70.2726993  35.2833833  51.9636493  69.6586993  34.2943833  52.6896493
  70.2926993  34.5953833  52.3406493  63.2196993  36.2293833  44.5606493
  63.2926993  37.0893833  44.6896493  63.1816993  36.1543833  43.6926493
  63.2246993  36.3453833  44.4516493  67.8926993  39.1553833  36.8596493
  67.4426993  39.8363833  37.1666493  68.0066993  38.6513833  37.5626493
  67.8436993  39.1813833  37.0086493  56.0986993  41.6543833  46.0616493
  55.8426993  42.4853833  45.9866493  55.4346993  41.2713833  46.4786493
  55.9626993  41.7203833  46.1126493  56.0086993  51.3643833  43.9616493
  55.4166993  51.9223833  43.6486493  56.4346993  51.0953833  43.2496493
  55.9846993  51.4063833  43.8106493  61.8486993  49.2083833  41.4416493
  61.2696993  48.9333833  42.0336493  62.4726993  48.5993833  41.4666493
  61.8556993  49.0783833  41.5326493  67.9916993  51.4963833  38.9636493
  68.7186993  51.9683833  39.0656493  68.2206993  50.7023833  39.2436493
  68.1336993  51.4493833  39.0206493  66.1596993  51.8883833  40.9536493
  66.3736993  52.4153833  41.6156493  66.9266993  51.7143833  40.5746493
  66.3046993  51.9403833  40.9956493  59.1276993  36.4713833  46.5526493
  58.6066993  35.8433833  46.2446493  59.7186993  36.0343833  47.0236493
  59.1386993  36.3133833  46.5766493  62.4336993  38.6043833  55.8506493
  62.5506993  38.1503833  55.1146493  62.7216993  39.4023833  55.6476493
  62.4936993  38.6553833  55.7116493  57.5536993  50.0343833  41.8926493
  58.2096993  49.4593833  41.9076493  57.9426993  50.7833833  41.6716493
  57.7086993  50.0593833  41.8626493  68.5986993  51.8983833  49.2586493
  69.3426993  52.3543833  49.2486493  68.4776993  51.6843833  48.4216493
  68.6906993  51.9343833  49.1336493  58.1666993  38.2013833  54.8346493
  57.3886993  37.8113833  54.7626493  58.6576993  37.7893833  54.2436493
  58.1236993  38.0823833  54.7366493  58.3716993  48.5213833  45.3926493
  58.7946993  48.1653833  44.7186493  58.6956993  48.0993833  46.0846493
  58.4816993  48.4063833  45.3956493  61.6026993  51.3733833  44.6886493
  62.4466993  51.4773833  44.4936493  61.3056993  52.1913833  44.7566493
  61.6836993  51.5093833  44.6696493  64.8156993  35.8443833  54.0026493
  64.9936993  35.0353833  53.7276493  64.6726993  36.2853833  53.2636493
  64.8206993  35.7903833  53.8526493  65.4096993  40.7703833  42.7756493
  65.6966993  40.5383833  41.9856493  66.1416993  40.8493833  43.2446493
  65.5596993  40.7473833  42.7286493  66.1316993  41.1093833  37.8966493
  66.4126993  41.8973833  38.1456493  65.3556993  41.2743833  37.5336493
  66.0586993  41.2503833  37.8796493  70.1726993  53.0833833  39.3636493
  70.8376993  52.9353833  38.8186493  70.5326993  53.0003833  40.1536493
  70.3246993  53.0493833  39.3996493  60.6006993  52.5923833  50.4286493
  60.8926993  52.5253833  51.2486493  59.9746993  51.9873833  50.3836493
  60.5516993  52.4933833  50.5436493  55.5146993  38.7493833  52.4206493
  55.5106993  39.3363833  53.0666493  56.1086993  39.0613833  51.8636493
  55.6016993  38.8823833  52.4336493  67.8526993  49.0833833  52.9626493
  67.8186993  49.4653833  53.7466493  68.7066993  49.0413833  52.7916493
  67.9736993  49.1333833  53.0536493  64.9906993  49.2803833  37.7126493
  64.8096993  49.8253833  38.3696493  65.7566993  49.5703833  37.4116493
  65.0766993  49.4043833  37.7656493  68.4976993  37.1763833  38.7666493
  69.0376993  36.4943833  38.8426493  68.5596993  37.5743833  39.5406493
  68.5866993  37.1343833  38.8926493  56.4516993  38.3443833  41.3356493
  56.3376993  37.4803833  41.3666493  55.9766993  38.6383833  42.0056493
  56.3646993  38.2603833  41.4386493  58.5936993  50.7543833  49.5506493
  57.8956993  50.2463833  49.6766493  58.8536993  50.5493833  48.7426493
  58.5286993  50.6493833  49.4496493  65.7556993  39.5523833  40.0806493
  65.2476993  38.8903833  39.8266493  65.8076993  40.0563833  39.3706493
  65.6886993  39.5293833  39.9386493  66.3046993  52.2473833  50.4606493
  67.0726993  52.1673833  50.0546493  65.7216993  52.1263833  49.8226493
  66.3316993  52.2173833  50.3066493  65.7556993  36.4933833  39.9716493
  65.3006993  36.0913833  39.3456493  66.5286993  36.6483833  39.5966493
  65.8026993  36.4573833  39.8236493  64.3536993  38.8603833  44.4936493
  64.4276993  39.4283833  43.8356493  64.4746993  39.3523833  45.2036493
  64.3816993  39.0173833  44.5016493  69.5786993  48.6953833  42.9056493
  70.2796993  48.2133833  43.0946493  68.9186993  48.1263833  42.9506493
  69.5846993  48.5403833  42.9396493  59.9546993  49.6053833  52.1176493
  60.7956993  49.6683833  51.8956493  59.9176993  50.0023833  52.8936493
  60.0736993  49.6733833  52.1996493  58.9616993  34.6833833  42.8416493
  59.4976993  35.3713833  42.8316493  58.9646993  34.4093833  42.0136493
  59.0406993  34.7443833  42.7176493  61.9176993  45.1163833  46.8666493
  62.0896993  44.9063833  47.6956493  61.2626993  44.5823833  46.6506493
  61.8466993  45.0063833  46.9576493  68.1456993  39.0303833  50.3816493
  68.0506993  39.3493833  51.1876493  67.5526993  38.3913833  50.3436493
  68.0436993  38.9823833  50.4956493  62.6676993  45.0543833  49.4566493
  62.7206993  45.9013833  49.6586493  62.3826993  44.6843833  50.1936493
  62.6336993  45.1243833  49.5946493  68.8446993  45.7493833  48.5866493
  68.3306993  45.3373833  49.1576493  68.7186993  46.5933833  48.7676493
  68.7506993  45.8133833  48.6976493  69.4016993  34.9743833  43.2176493
  69.4506993  34.6563833  44.0286493  69.7246993  34.3303833  42.7246493
  69.4566993  34.8323833  43.2646493  55.4886993  49.4253833  55.6676493
  56.2446993  49.7743833  55.9256493  55.6656993  48.5723833  55.6106493
  55.6266993  49.3503833  55.6976493  59.4096993  38.4933833  44.4956493
  59.6816993  38.0633833  43.7876493  59.2336993  37.8573833  45.0666493
  59.4236993  38.3363833  44.4756493  59.2336993  45.9203833  44.0446493
  60.0846993  45.8403833  43.8716493  58.8766993  45.2383833  43.6326493
  59.3066993  45.8073833  43.9576493  58.0006993  52.6453833  45.2816493
  57.3276993  52.1473833  45.0366493  58.4036993  52.8303833  44.5306493
  57.9606993  52.5993833  45.1346493  57.5506993  39.5953833  47.5776493
  58.3936993  39.8153833  47.5346493  57.1616993  40.1683833  47.0466493
  57.6176993  39.7123833  47.4926493  69.9926993  42.7253833  38.2986493
  69.7726993  43.4563833  37.8766493  69.5446993  42.7763833  39.0456493
  69.8936993  42.8403833  38.3466493  61.6016993  45.9273833  42.2796493
  62.3146993  46.4223833  42.3696493  61.8236993  45.3603833  41.6536493
  61.7396993  45.9163833  42.2006493  55.7576993  47.5703833  45.5996493
  55.0906993  48.0583833  45.8756493  56.4376993  48.1153833  45.6286493
  55.7596993  47.7223833  45.6446493  63.4046993  41.2803833  55.6956493
  62.9206993  41.8573833  56.1376493  63.3766993  41.5753833  54.8746493
  63.3286993  41.4093833  55.6396493  55.8236993  44.2543833  40.7026493
  55.6386993  43.4153833  40.8546493  56.4826993  44.2183833  40.1326493
  55.8936993  44.1253833  40.6406493  66.1246993  49.6303833  44.6066493
  65.6016993  50.2643833  44.3136493  66.4346993  49.2663833  43.8776493
  66.0926993  49.6703833  44.4556493  55.9956993  48.4183833  40.2776493
  56.5476993  48.9873833  40.6416493  55.7636993  47.9033833  40.9426493
  56.0426993  48.4263833  40.4296493  60.1996993  47.4183833  47.3666493
  60.6666993  47.7073833  48.0446493  60.7716993  46.9403833  46.9126493
  60.3536993  47.3903833  47.3996493  68.6356993  39.4323833  45.1036493
  68.9796993  39.5843833  45.8906493  68.1826993  38.6943833  45.2166493
  68.6196993  39.3453833  45.2366493  55.8256993  46.8673833  37.9056493
  56.5816993  46.4353833  37.9636493  55.8406993  47.3993833  38.5966493
  55.9396993  46.8823833  38.0166493  56.7656993  45.0883833  45.9106493
  57.1966993  44.9593833  45.1636493  56.5606993  45.9363833  45.8846493
  56.7986993  45.1943833  45.7966493  63.1116993  38.6523833  39.5606493
  63.1096993  38.5353833  38.6956493  62.9306993  39.5003833  39.6526493
  63.0846993  38.7603833  39.4466493  60.8496993  48.6043833  44.1926493
  60.9756993  49.4473833  44.3796493  61.5176993  48.2053833  44.5886493
  60.9676993  48.6703833  44.2786493  58.9796993  42.0873833  54.0546493
  58.4436993  41.5813833  54.5226493  58.9996993  41.6973833  53.2746493
  58.9026993  41.9543833  54.0086493  59.4646993  41.4843833  39.1946493
  59.3366993  41.0363833  39.9326493  58.8826993  41.1423833  38.6426493
  59.3596993  41.3673833  39.2226493  59.6316993  43.3143833  45.7936493
  58.8506993  43.2553833  45.4106493  59.7036993  42.5623833  46.2306493
  59.5266993  43.1953833  45.8016493  60.0616993  43.0513833  49.2616493
  60.0866993  42.3763833  48.7106493  59.4156993  43.5473833  48.9496493
  59.9706993  43.0243833  49.1346493  69.9566993  40.7643833  47.6576493
  69.2946993  41.0923833  48.1206493  70.1436993  41.3983833  47.0886493
  69.8866993  40.9063833  47.6416493  64.1616993  51.8283833  48.6536493
  63.8846993  51.1873833  48.1306493  63.9536993  52.5543833  48.2156493
  64.0906993  51.8413833  48.5116493  66.6016993  36.6703833  51.0866493
  66.7506993  35.8453833  50.8436493  66.9806993  36.7253833  51.8706493
  66.6796993  36.5563833  51.1666493  68.1496993  38.7333833  41.1686493
  68.6396993  39.4503833  41.0916493  67.3596993  38.9943833  40.9056493
  68.1056993  38.8773833  41.1186493  57.8606993  44.4063833  54.8206493
  57.8236993  44.9073833  54.1066493  58.1916993  43.6543833  54.5256493
  57.9036993  44.3683833  54.6716493  69.4636993  46.6113833  53.0786493
  69.9476993  47.3293833  53.1766493  69.8576993  46.1843833  52.4276493
  69.5936993  46.6543833  52.9966493  63.7596993  49.4563833  54.2556493
  64.1136993  49.2783833  55.0326493  63.3236993  48.7273833  54.0566493
  63.7476993  49.3223833  54.3416493  64.7316993  40.2033833  46.8936493
  65.2116993  40.9023833  47.1016493  65.1046993  39.5563833  47.3446493
  64.8576993  40.2113833  46.9906493  66.9206993  43.3723833  39.1676493
  66.9126993  44.0943833  38.6776493  66.2816993  43.5073833  39.7446493
  66.8256993  43.4993833  39.1806493  67.9376993  50.3083833  46.9926493
  67.3346993  50.0123833  46.4356493  68.4826993  50.7603833  46.4836493
  67.9286993  50.3313833  46.8346493  67.9506993  47.1593833  46.3926493
  67.1536993  47.3833833  46.6666493  68.2086993  46.5653833  46.9776493
  67.8706993  47.1043833  46.5196493  61.8426993  51.9713833  40.8406493
  61.6956993  51.1953833  41.2116493  62.5316993  51.8243833  40.3256493
  61.9226993  51.8343833  40.8196493  61.5136993  35.7143833  38.8286493
  61.6106993  35.6073833  39.6896493  60.8056993  36.2203833  38.7636493
  61.4236993  35.7733833  38.9466493  64.1346993  51.4873833  39.2426493
  64.7566993  51.6503833  39.8326493  64.1706993  52.1783833  38.7106493
  64.2316993  51.6133833  39.2516493  67.4016993  50.5063833  55.5156493
  67.5656993  50.7893833  56.3246493  67.6646993  51.1673833  55.0106493
  67.4646993  50.6463833  55.5606493  58.6356993  44.0213833  40.0716493
  58.9596993  43.2423833  39.8496493  59.2816993  44.3893833  40.5266493
  58.7786993  43.9603833  40.1056493  66.9416993  44.9633833  50.8386493
  66.7866993  45.5733833  51.4426493  67.4756993  44.4053833  51.2446493
  66.9976993  44.9713833  50.9876493  55.6326993  35.6823833  41.0396493
  55.7616993  34.9743833  40.5476493  55.2656993  35.3643833  41.7646493
  55.5976993  35.5303833  41.0746493  65.3256993  43.3633833  41.4966493
  65.3846993  44.0133833  42.0756493  65.1366993  42.6673833  41.9876493
  65.3066993  43.3563833  41.6546493  70.5516993  47.6923833  47.3656493
  70.0726993  47.9903833  46.6996493  70.1956993  46.9163833  47.5436493
  70.4286993  47.6213833  47.2936493  59.8216993  37.8803833  38.0086493
  59.3106993  37.9333833  37.3026493  60.6056993  38.1203833  37.7126493
  59.8616993  37.9233833  37.8606493  64.5486993  45.4103833  45.9276493
  63.7016993  45.2163833  46.0086493  64.8726993  45.2453833  46.7206493
  64.4706993  45.3573833  46.0566493  61.3006993  52.1403833  36.8136493
  61.7396993  51.4433833  37.1016493  61.5076993  52.7643833  37.3866493
  61.3966993  52.1293833  36.9406493  58.3966993  45.1033833  48.2436493
  59.1186993  45.5913833  48.2066493  58.1266993  45.0733833  47.4146493
  58.4636993  45.1713833  48.1156493  61.6266993  40.2743833  44.9786493
  62.4726993  40.0843833  45.0766493  61.2566993  39.4973833  44.8406493
  61.6966993  40.1313833  44.9726493  56.4476993  41.6123833  41.6336493
  56.9366993  41.3203833  42.2946493  56.5766993  41.0193833  41.0066493
  56.5386993  41.4813833  41.6386493  60.9726993  43.0463833  37.1196493
  60.3626993  42.6413833  37.5936493  60.5866993  43.1643833  36.3466493
  60.8256993  43.0033833  37.0756493  57.7916993  46.1553833  52.5216493
  57.3706993  45.6373833  51.9606493  57.4396993  46.9413833  52.3786493
  57.6776993  46.1953833  52.4176493  62.4276993  41.5073833  39.8296493
  62.6996993  42.3333833  39.8966493  61.5646993  41.5823833  39.7336493
  62.3406993  41.6403833  39.8246493  70.4006993  38.6293833  54.4616493
  69.8756993  39.0883833  54.9856493  70.0396993  37.8343833  54.4556493
  70.2696993  38.5793833  54.5376493  55.9076993  37.4773833  46.3656493
  55.9516993  37.8213833  45.5646493  56.6626993  37.7143833  46.7326493
  56.0256993  37.5633833  46.3016493  68.8926993  42.1983833  54.5376493
  68.9656993  42.3023833  55.4006493  68.2586993  42.7563833  54.3166493
  68.8096993  42.2963833  54.6326493  70.4746993  48.9413833  38.4326493
  70.8086993  48.1353833  38.4676493  69.7196993  48.8693833  38.8626493
  70.4126993  48.8113833  38.5016493  70.9566993  40.7753833  44.0916493
  70.2116993  40.4523833  44.4096493  70.9586993  41.6013833  44.3716493
  70.8466993  40.8493833  44.1796493  67.8486993  46.8163833  37.8356493
  68.5326993  46.3023833  37.6666493  67.4316993  46.8623833  37.0706493
  67.8876993  46.7473833  37.6976493  62.5306993  47.9663833  49.1396493
  62.2326993  48.5583833  49.7066493  62.5856993  48.4083833  48.3906493
  62.4946993  48.1193833  49.1126493  60.5096993  46.9163833  52.5376493
  59.7036993  46.6263833  52.7046493  60.4206993  47.7843833  52.5436493
  60.3776993  47.0013833  52.5626493  69.8686993  37.1053833  51.5526493
  70.6126993  37.5573833  51.4896493  69.3026993  37.5753833  51.0836493
  69.8956993  37.2423833  51.4746493  65.0466993  44.3893833  48.6306493
  65.5226993  44.7633833  49.2586493  64.2236993  44.5233833  48.8896493
  64.9956993  44.4643833  48.7616493  61.7566993  39.9923833  51.3716493
  61.9176993  39.2483833  51.7986493  61.7116993  39.7433833  50.5366493
  61.7736993  39.8453833  51.3116493  64.3106993  51.7823833  43.8586493
  64.8566993  52.4613833  43.9126493  63.9606993  51.8643833  43.0636493
  64.3396993  51.8953833  43.7486493  63.5086993  35.8003833  51.2516493
  64.2136993  36.1203833  50.8496493  63.7496993  34.9933833  51.4786493
  63.6476993  35.7283833  51.2256493  62.4936993  50.0103833  47.2476493
  61.8696993  50.5923833  47.0656493  62.7416993  49.7243833  46.4616493
  62.4376993  50.0543833  47.1046493  66.8026993  46.6443833  54.2366493
  67.5596993  46.9303833  53.9106493  66.2556993  46.6963833  53.5586493
  66.8336993  46.6943833  54.0876493  70.7116993  49.1943833  52.7406493
  71.0576993  49.4643833  53.4946493  71.0056993  49.7763833  52.1606493
  70.8066993  49.3203833  52.7666493  64.0876993  44.7863833  37.1626493
  63.2826993  44.6093833  36.8776493  64.0546993  45.6373833  37.3546493
  63.9636993  44.8853833  37.1496493  60.0176993  40.8533833  47.3126493
  60.4576993  40.7503833  46.5666493  60.5626993  40.5403833  47.9176493
  60.1626993  40.7923833  47.2916493  68.0336993  39.9553833  52.9046493
  67.3856993  40.4253833  53.2526493  68.5986993  39.8663833  53.5636493
  68.0216993  40.0113833  53.0536493  67.7216993  41.4923833  49.2026493
  68.0236993  41.9123833  49.9056493  67.7576993  40.6523833  49.4346493
  67.7716993  41.4303833  49.3406493  65.1466993  51.6593833  53.1276493
  65.6246993  51.0593833  52.7116493  64.7956993  51.2163833  53.7926493
  65.1656993  51.5053833  53.1646493  70.2696993  40.9393833  41.4546493
  70.4766993  40.7383833  42.2786493  71.0256993  41.2073833  41.1126493
  70.4116993  40.9493833  41.5256493  63.5646993  35.8383833  47.3596493
  62.7386993  35.6893833  47.5966493  63.5246993  35.8733833  46.4886493
  63.4366993  35.8213833  47.2656493  65.2056993  46.8783833  52.1476493
  64.4106993  46.8143833  52.4986493  65.2766993  47.7253833  51.9526493
  65.0986993  46.9933833  52.1706493  56.1296993  36.2363833  53.3946493
  55.9896993  37.0313833  53.0636493  55.3436993  35.9933833  53.6836493
  55.9926993  36.3183833  53.3886493  61.0356993  53.0853833  47.4646493
  61.0466993  53.1443833  48.3346493  60.6106993  52.3383833  47.3146493
  60.9746993  52.9833833  47.5706493  59.1936993  38.9803833  40.6196493
  59.3196993  38.6513833  39.8216493  58.3816993  38.7313833  40.8186493
  59.0926993  38.8953833  40.5316493  67.9506993  46.1333833  43.6636493
  68.0266993  46.4743833  44.4626493  68.1196993  45.2863833  43.7846493
  67.9866993  46.0583833  43.7996493  65.4726993  45.4073833  43.2286493
  65.1746993  45.0923833  43.9856493  66.1676993  45.8803833  43.4636493
  65.5316993  45.4303833  43.3756493  65.6946993  49.5253833  51.2556493
  66.3816993  49.4113833  51.7806493  65.8286993  50.3163833  50.9116493
  65.8156993  49.6253833  51.2826493  68.3836993  42.7993833  51.6426493
  68.1286993  42.0803833  52.0646493  69.2046993  42.9153833  51.9126493
  68.4676993  42.7103833  51.7446493  57.7996993  52.5833833  52.9066493
  57.1456993  52.0143833  53.0046493  57.4246993  53.3563833  53.0576493
  57.6476993  52.6133833  52.9436493  66.3176993  43.9893833  54.8296493
  66.6406993  44.6753833  54.3976493  65.6136993  44.3123833  55.2316493
  66.2606993  44.1383833  54.8246493  69.4016993  52.3633833  45.7586493
  68.9506993  53.0063833  46.1376493  70.1096993  52.2843833  46.2636493
  69.4396993  52.4463833  45.8896493  66.1026993  47.4533833  48.6886493
  65.4086993  47.8553833  49.0316493  66.7796993  47.8863833  49.0276493
  66.0996993  47.5763833  48.7896493  59.1706993  40.9913833  51.0356493
  59.5456993  41.6103833  50.5486493  59.8446993  40.5173833  51.3206493
  59.3256993  41.0133833  51.0056493  56.9456993  39.4393833  50.3106493
  57.0226993  39.2703833  49.4576493  57.6916993  39.8453833  50.5076493
  57.0666993  39.4743833  50.2136493  59.4996993  36.8493833  52.7216493
  59.4186993  36.0053833  52.9276493  59.1856993  36.8933833  51.9086493
  59.4416993  36.7313833  52.6316493  66.4246993  49.0443833  41.8576493
  66.2196993  49.8773833  41.6986493  65.6496993  48.6623833  41.9796493
  66.2796993  49.1113833  41.8526493  56.3426993  44.6653833  50.5346493
  56.6626993  44.8843833  49.7536493  56.2426993  43.8003833  50.4796493
  56.3746993  44.5703833  50.4116493  57.7986993  40.6013833  37.1526493
  57.1266993  40.6153833  37.7086493  57.8936993  39.7533833  36.9686493
  57.7136993  40.4783833  37.2076493  67.4856993  37.0253833  53.8886493
  67.5776993  37.7373833  54.3826493  66.8486993  36.5803833  54.2856493
  67.4046993  37.0643833  54.0206493  66.4796993  37.2153833  44.7426493
  65.7796993  37.7333833  44.6866493  66.5176993  36.8353833  43.9586493
  66.3816993  37.2363833  44.6186493  61.7866993  49.3063833  38.2666493
  62.2276993  49.3863833  39.0146493  60.9816993  49.0903833  38.5246493
  61.7326993  49.2863833  38.4156493  70.0776993  37.7313833  47.5426493
  70.9326993  37.8303833  47.6876493  69.7086993  38.2843833  48.1076493
  70.1496993  37.8283833  47.6476493  61.1056993  43.9573833  51.9196493
  60.7096993  44.7313833  51.9946493  60.6996993  43.5843833  51.2436493
  60.9876993  44.0163833  51.8306493  70.3816993  43.0113833  46.0336493
  71.0476993  43.5523833  46.1936493  70.0366993  43.3223833  45.2946493
  70.4286993  43.1373833  45.9486493  59.1156993  48.3763833  38.8676493
  58.8716993  48.0693833  39.6476493  59.0826993  47.6733833  38.3516493
  59.0746993  48.2273833  38.9066493  61.9346993  46.6213833  37.6106493
  61.1166993  46.3533833  37.7506493  61.9066993  47.4733833  37.7956493
  61.8096993  46.7083833  37.6586493  61.5346993  36.9343833  49.3696493
  60.6706993  37.0183833  49.4496493  61.7546993  36.4203833  50.0386493
  61.4396993  36.8713833  49.4806493  65.6376993  37.6823833  47.7436493
  64.9006993  37.2283833  47.8566493  66.2086993  37.2803833  48.2666493
  65.6126993  37.5553833  47.8376493  68.3696993  48.5303833  49.5316493
  68.5756993  48.8313833  50.3236493  68.3086993  49.2523833  49.0466493
  68.3906993  48.6813833  49.5766493  67.9036993  52.7443833  53.7776493
  67.1506993  52.7263833  53.3366493  68.0716993  53.5963833  53.8616493
  67.8176993  52.8673833  53.7246493  63.1406993  42.0113833  52.9476493
  62.8186993  41.4353833  52.3776493  62.7816993  42.7663833  52.7016493
  63.0406993  42.0373833  52.8276493  63.9366993  35.2633833  37.5746493
  64.0146993  35.5103833  36.7416493  63.1936993  35.6403833  37.8326493
  63.8386993  35.3553833  37.4896493  61.5756993  52.3673833  53.1956493
  61.6166993  52.4933833  54.0586493  62.2266993  51.8073833  53.0396493
  61.6776993  52.3033833  53.3006493  58.7546993  37.0173833  50.0176493
  58.4116993  36.2503833  49.7836493  58.0596993  37.5413833  50.0816493
  58.6016993  36.9813833  49.9926493  67.8006993  35.8733833  46.9946493
  68.4706993  36.4173833  47.1216493  67.2976993  36.2973833  46.4216493
  67.8256993  36.0163833  46.9286493  59.1686993  50.7503833  54.5556493
  59.7636993  51.1813833  55.0276493  58.8046993  51.3743833  54.0666493
  59.2026993  50.9063833  54.5526493  67.1596993  41.6813833  44.4876493
  67.7106993  41.0743833  44.7876493  66.7346993  41.9443833  45.2026493
  67.1786993  41.6303833  44.6366493  57.4076993  40.3313833  43.9736493
  57.0396993  40.6333833  44.7046493  57.9416993  39.7023833  44.2576493
  57.4316993  40.2833833  44.1236493  57.0956993  48.7393833  51.4846493
  56.5216993  49.1553833  51.9936493  57.8286993  49.2043833  51.5796493
  57.1196993  48.8693833  51.5736493  69.1296993  43.5123833  41.0496493
  69.1976993  42.6623833  41.2306493  68.3066993  43.5983833  40.7716493
  69.0176993  43.3993833  41.0356493  58.8816993  52.0063833  40.2596493
  58.7366993  52.1623833  39.4136493  59.7476993  52.0853833  40.3376493
  58.9886993  52.0413833  40.1466493  63.0486993  44.4033833  39.9876493
  63.1486993  44.5423833  39.1326493  63.8666993  44.3433833  40.2836493
  63.1836993  44.4143833  39.9046493  68.2836993  48.7323833  39.7896493
  68.0326993  48.6043833  40.6156493  67.9666993  48.0373833  39.3686493
  68.1996993  48.6113833  39.8496493  62.1876993  37.3783833  53.1036493
  62.4216993  36.8023833  52.4906493  61.3456993  37.1973833  53.2446493
  62.0976993  37.2663833  53.0336493  69.8146993  44.9963833  55.5556493
  70.6856993  44.9603833  55.5196493  69.5956993  45.4163833  54.8236493
  69.9116993  45.0523833  55.4426493  59.5686993  50.8213833  46.7366493
  59.4896993  50.0113833  46.4206493  59.1246993  51.3083833  46.1646493
  59.4916993  50.7733833  46.6056493  65.1696993  46.9403833  39.2196493
  65.8866993  46.5933833  38.8636493  65.1356993  47.7403833  38.8716493
  65.2706993  47.0073833  39.1156493  57.1406993  53.0653833  50.3176493
  57.6336993  53.0093833  51.0356493  57.3286993  52.3323833  49.8826493
  57.2416993  52.9483833  50.3596493  66.5786993  35.5813833  23.4584083
  66.3336993  36.0693833  22.7784083  67.4416993  35.5083833  23.3584083
  66.6696993  35.6423833  23.3434083  66.3876993  42.4973833  28.1294083
  65.8636993  43.0933833  28.4924083  66.7846993  42.1293833  28.8134083
  66.3686993  42.5313833  28.2844083  56.2566993  46.6373833  23.5854083
  55.8156993  46.7553833  24.3284083  55.9736993  45.8623833  23.3004083
  56.1496993  46.5403833  23.6534083  55.9996993  40.4293833  20.0924083
  55.2216993  40.5913833  19.7324083  56.0386993  39.5583833  20.1144083
  55.8906993  40.3243833  20.0424083  59.1386993  45.6923833  18.7644083
  58.7466993  45.3213833  18.0784083  59.0586993  45.0943833  19.3934083
  59.0686993  45.5493833  18.7554083  69.0586993  43.5643833  24.8054083
  69.1386993  43.5683833  23.9364083  68.4746993  42.9323833  24.9544083
  68.9836993  43.4713833  24.6994083  58.7656993  47.3333833  22.6644083
  59.3736993  47.1633833  23.2674083  58.0146993  47.1933833  23.0854083
  58.7446993  47.2873833  22.8154083  63.0476993  36.6683833  22.6134083
  62.9776993  37.3453833  22.0674083  63.7886993  36.2803833  22.3644083
  63.1466993  36.7113833  22.4954083  57.6566993  50.4243833  18.7414083
  58.1236993  50.5083833  18.0094083  58.1116993  49.8463833  19.2104083
  57.7926993  50.3513833  18.7024083  56.1966993  49.3723833  29.8404083
  56.3256993  49.0923833  30.6564083  55.5866993  48.8313833  29.5314083
  56.1256993  49.2513833  29.9154083  62.7706993  46.8973833  34.9074083
  62.5346993  46.8943833  35.7474083  62.0226993  46.7493833  34.4834083
  62.6246993  46.8743833  34.9684083  57.6426993  43.8933833  24.0424083
  57.1806993  43.5013833  23.4154083  58.3426993  43.3803833  24.1344083
  57.6776993  43.7603833  23.9634083  62.1506993  39.5033833  29.3894083
  62.8286993  39.5213833  28.8404083  62.1056993  38.6673833  29.6344083
  62.2436993  39.3823833  29.3444083  62.7526993  50.0893833  32.1704083
  62.8906993  50.8493833  31.7634083  63.5436993  49.7243833  32.1974083
  62.8896993  50.1483833  32.1144083  59.6436993  41.9933833  24.0654083
  60.4606993  41.8063833  24.3084083  59.1666993  41.3793833  24.4614083
  59.6936993  41.8753833  24.1604083  63.8476993  47.9743833  26.6754083
  64.1956993  47.1753833  26.7054083  64.5126993  48.4783833  26.4204083
  63.9976993  47.9303833  26.6424083  63.9046993  47.4233833  22.8864083
  64.2356993  46.7793833  23.3724083  64.1446993  47.2123833  22.0754083
  63.9886993  47.2973833  22.8384083  65.8726993  41.5543833  34.2254083
  65.0246993  41.4553833  34.0474083  65.9016993  42.2993833  34.6794083
  65.7516993  41.6503833  34.2664083  60.2406993  37.0873833  23.3314083
  59.9446993  37.5883833  22.6814083  61.1076993  37.1653833  23.2744083
  60.3246993  37.1733833  23.2274083  70.4306993  34.5143833  33.3394083
  70.2726993  35.2833833  32.9574083  69.6586993  34.2943833  33.6834083
  70.2926993  34.5953833  33.3344083  63.2196993  36.2293833  25.5544083
  63.2926993  37.0893833  25.6834083  63.1816993  36.1543833  24.6864083
  63.2246993  36.3453833  25.4454083  67.8926993  39.1553833  17.8534083
  67.4426993  39.8363833  18.1604083  68.0066993  38.6513833  18.5564083
  67.8436993  39.1813833  18.0024083  56.0986993  41.6543833  27.0554083
  55.8426993  42.4853833  26.9804083  55.4346993  41.2713833  27.4724083
  55.9626993  41.7203833  27.1064083  56.0086993  51.3643833  24.9554083
  55.4166993  51.9223833  24.6424083  56.4346993  51.0953833  24.2434083
  55.9846993  51.4063833  24.8044083  61.8486993  49.2083833  22.4354083
  61.2696993  48.9333833  23.0274083  62.4726993  48.5993833  22.4604083
  61.8556993  49.0783833  22.5264083  67.9916993  51.4963833  19.9574083
  68.7186993  51.9683833  20.0594083  68.2206993  50.7023833  20.2374083
  68.1336993  51.4493833  20.0144083  66.1596993  51.8883833  21.9474083
  66.3736993  52.4153833  22.6094083  66.9266993  51.7143833  21.5684083
  66.3046993  51.9403833  21.9894083  59.1276993  36.4713833  27.5464083
  58.6066993  35.8433833  27.2384083  59.7186993  36.0343833  28.0174083
  59.1386993  36.3133833  27.5704083  62.4336993  38.6043833  36.8444083
  62.5506993  38.1503833  36.1084083  62.7216993  39.4023833  36.6414083
  62.4936993  38.6553833  36.7054083  57.5536993  50.0343833  22.8864083
  58.2096993  49.4593833  22.9014083  57.9426993  50.7833833  22.6654083
  57.7086993  50.0593833  22.8564083  68.5986993  51.8983833  30.2524083
  69.3426993  52.3543833  30.2424083  68.4776993  51.6843833  29.4154083
  68.6906993  51.9343833  30.1274083  58.1666993  38.2013833  35.8284083
  57.3886993  37.8113833  35.7564083  58.6576993  37.7893833  35.2374083
  58.1236993  38.0823833  35.7304083  58.3716993  48.5213833  26.3864083
  58.7946993  48.1653833  25.7124083  58.6956993  48.0993833  27.0784083
  58.4816993  48.4063833  26.3894083  61.6026993  51.3733833  25.6824083
  62.4466993  51.4773833  25.4874083  61.3056993  52.1913833  25.7504083
  61.6836993  51.5093833  25.6634083  64.8156993  35.8443833  34.9964083
  64.9936993  35.0353833  34.7214083  64.6726993  36.2853833  34.2574083
  64.8206993  35.7903833  34.8464083  65.4096993  40.7703833  23.7694083
  65.6966993  40.5383833  22.9794083  66.1416993  40.8493833  24.2384083
  65.5596993  40.7473833  23.7224083  66.1316993  41.1093833  18.8904083
  66.4126993  41.8973833  19.1394083  65.3556993  41.2743833  18.5274083
  66.0586993  41.2503833  18.8734083  70.1726993  53.0833833  20.3574083
  70.8376993  52.9353833  19.8124083  70.5326993  53.0003833  21.1474083
  70.3246993  53.0493833  20.3934083  60.6006993  52.5923833  31.4224083
  60.8926993  52.5253833  32.2424083  59.9746993  51.9873833  31.3774083
  60.5516993  52.4933833  31.5374083  55.5146993  38.7493833  33.4144083
  55.5106993  39.3363833  34.0604083  56.1086993  39.0613833  32.8574083
  55.6016993  38.8823833  33.4274083  67.8526993  49.0833833  33.9564083
  67.8186993  49.4653833  34.7404083  68.7066993  49.0413833  33.7854083
  67.9736993  49.1333833  34.0474083  64.9906993  49.2803833  18.7064083
  64.8096993  49.8253833  19.3634083  65.7566993  49.5703833  18.4054083
  65.0766993  49.4043833  18.7594083  68.4976993  37.1763833  19.7604083
  69.0376993  36.4943833  19.8364083  68.5596993  37.5743833  20.5344083
  68.5866993  37.1343833  19.8864083  56.4516993  38.3443833  22.3294083
  56.3376993  37.4803833  22.3604083  55.9766993  38.6383833  22.9994083
  56.3646993  38.2603833  22.4324083  58.5936993  50.7543833  30.5444083
  57.8956993  50.2463833  30.6704083  58.8536993  50.5493833  29.7364083
  58.5286993  50.6493833  30.4434083  65.7556993  39.5523833  21.0744083
  65.2476993  38.8903833  20.8204083  65.8076993  40.0563833  20.3644083
  65.6886993  39.5293833  20.9324083  66.3046993  52.2473833  31.4544083
  67.0726993  52.1673833  31.0484083  65.7216993  52.1263833  30.8164083
  66.3316993  52.2173833  31.3004083  65.7556993  36.4933833  20.9654083
  65.3006993  36.0913833  20.3394083  66.5286993  36.6483833  20.5904083
  65.8026993  36.4573833  20.8174083  64.3536993  38.8603833  25.4874083
  64.4276993  39.4283833  24.8294083  64.4746993  39.3523833  26.1974083
  64.3816993  39.0173833  25.4954083  69.5786993  48.6953833  23.8994083
  70.2796993  48.2133833  24.0884083  68.9186993  48.1263833  23.9444083
  69.5846993  48.5403833  23.9334083  59.9546993  49.6053833  33.1114083
  60.7956993  49.6683833  32.8894083  59.9176993  50.0023833  33.8874083
  60.0736993  49.6733833  33.1934083  58.9616993  34.6833833  23.8354083
  59.4976993  35.3713833  23.8254083  58.9646993  34.4093833  23.0074083
  59.0406993  34.7443833  23.7114083  61.9176993  45.1163833  27.8604083
  62.0896993  44.9063833  28.6894083  61.2626993  44.5823833  27.6444083
  61.8466993  45.0063833  27.9514083  68.1456993  39.0303833  31.3754083
  68.0506993  39.3493833  32.1814083  67.5526993  38.3913833  31.3374083
  68.0436993  38.9823833  31.4894083  62.6676993  45.0543833  30.4504083
  62.7206993  45.9013833  30.6524083  62.3826993  44.6843833  31.1874083
  62.6336993  45.1243833  30.5884083  68.8446993  45.7493833  29.5804083
  68.3306993  45.3373833  30.1514083  68.7186993  46.5933833  29.7614083
  68.7506993  45.8133833  29.6914083  69.4016993  34.9743833  24.2114083
  69.4506993  34.6563833  25.0224083  69.7246993  34.3303833  23.7184083
  69.4566993  34.8323833  24.2584083  55.4886993  49.4253833  36.6614083
  56.2446993  49.7743833  36.9194083  55.6656993  48.5723833  36.6044083
  55.6266993  49.3503833  36.6914083  59.4096993  38.4933833  25.4894083
  59.6816993  38.0633833  24.7814083  59.2336993  37.8573833  26.0604083
  59.4236993  38.3363833  25.4694083  59.2336993  45.9203833  25.0384083
  60.0846993  45.8403833  24.8654083  58.8766993  45.2383833  24.6264083
  59.3066993  45.8073833  24.9514083  58.0006993  52.6453833  26.2754083
  57.3276993  52.1473833  26.0304083  58.4036993  52.8303833  25.5244083
  57.9606993  52.5993833  26.1284083  57.5506993  39.5953833  28.5714083
  58.3936993  39.8153833  28.5284083  57.1616993  40.1683833  28.0404083
  57.6176993  39.7123833  28.4864083  69.9926993  42.7253833  19.2924083
  69.7726993  43.4563833  18.8704083  69.5446993  42.7763833  20.0394083
  69.8936993  42.8403833  19.3404083  61.6016993  45.9273833  23.2734083
  62.3146993  46.4223833  23.3634083  61.8236993  45.3603833  22.6474083
  61.7396993  45.9163833  23.1944083  55.7576993  47.5703833  26.5934083
  55.0906993  48.0583833  26.8694083  56.4376993  48.1153833  26.6224083
  55.7596993  47.7223833  26.6384083  63.4046993  41.2803833  36.6894083
  62.9206993  41.8573833  37.1314083  63.3766993  41.5753833  35.8684083
  63.3286993  41.4093833  36.6334083  55.8236993  44.2543833  21.6964083
  55.6386993  43.4153833  21.8484083  56.4826993  44.2183833  21.1264083
  55.8936993  44.1253833  21.6344083  66.1246993  49.6303833  25.6004083
  65.6016993  50.2643833  25.3074083  66.4346993  49.2663833  24.8714083
  66.0926993  49.6703833  25.4494083  55.9956993  48.4183833  21.2714083
  56.5476993  48.9873833  21.6354083  55.7636993  47.9033833  21.9364083
  56.0426993  48.4263833  21.4234083  60.1996993  47.4183833  28.3604083
  60.6666993  47.7073833  29.0384083  60.7716993  46.9403833  27.9064083
  60.3536993  47.3903833  28.3934083  68.6356993  39.4323833  26.0974083
  68.9796993  39.5843833  26.8844083  68.1826993  38.6943833  26.2104083
  68.6196993  39.3453833  26.2304083  55.8256993  46.8673833  18.8994083
  56.5816993  46.4353833  18.9574083  55.8406993  47.3993833  19.5904083
  55.9396993  46.8823833  19.0104083  56.7656993  45.0883833  26.9044083
  57.1966993  44.9593833  26.1574083  56.5606993  45.9363833  26.8784083
  56.7986993  45.1943833  26.7904083  63.1116993  38.6523833  20.5544083
  63.1096993  38.5353833  19.6894083  62.9306993  39.5003833  20.6464083
  63.0846993  38.7603833  20.4404083  60.8496993  48.6043833  25.1864083
  60.9756993  49.4473833  25.3734083  61.5176993  48.2053833  25.5824083
  60.9676993  48.6703833  25.2724083  58.9796993  42.0873833  35.0484083
  58.4436993  41.5813833  35.5164083  58.9996993  41.6973833  34.2684083
  58.9026993  41.9543833  35.0024083  59.4646993  41.4843833  20.1884083
  59.3366993  41.0363833  20.9264083  58.8826993  41.1423833  19.6364083
  59.3596993  41.3673833  20.2164083  59.6316993  43.3143833  26.7874083
  58.8506993  43.2553833  26.4044083  59.7036993  42.5623833  27.2244083
  59.5266993  43.1953833  26.7954083  60.0616993  43.0513833  30.2554083
  60.0866993  42.3763833  29.7044083  59.4156993  43.5473833  29.9434083
  59.9706993  43.0243833  30.1284083  69.9566993  40.7643833  28.6514083
  69.2946993  41.0923833  29.1144083  70.1436993  41.3983833  28.0824083
  69.8866993  40.9063833  28.6354083  64.1616993  51.8283833  29.6474083
  63.8846993  51.1873833  29.1244083  63.9536993  52.5543833  29.2094083
  64.0906993  51.8413833  29.5054083  66.6016993  36.6703833  32.0804083
  66.7506993  35.8453833  31.8374083  66.9806993  36.7253833  32.8644083
  66.6796993  36.5563833  32.1604083  68.1496993  38.7333833  22.1624083
  68.6396993  39.4503833  22.0854083  67.3596993  38.9943833  21.8994083
  68.1056993  38.8773833  22.1124083  57.8606993  44.4063833  35.8144083
  57.8236993  44.9073833  35.1004083  58.1916993  43.6543833  35.5194083
  57.9036993  44.3683833  35.6654083  69.4636993  46.6113833  34.0724083
  69.9476993  47.3293833  34.1704083  69.8576993  46.1843833  33.4214083
  69.5936993  46.6543833  33.9904083  63.7596993  49.4563833  35.2494083
  64.1136993  49.2783833  36.0264083  63.3236993  48.7273833  35.0504083
  63.7476993  49.3223833  35.3354083  64.7316993  40.2033833  27.8874083
  65.2116993  40.9023833  28.0954083  65.1046993  39.5563833  28.3384083
  64.8576993  40.2113833  27.9844083  66.9206993  43.3723833  20.1614083
  66.9126993  44.0943833  19.6714083  66.2816993  43.5073833  20.7384083
  66.8256993  43.4993833  20.1744083  67.9376993  50.3083833  27.9864083
  67.3346993  50.0123833  27.4294083  68.4826993  50.7603833  27.4774083
  67.9286993  50.3313833  27.8284083  67.9506993  47.1593833  27.3864083
  67.1536993  47.3833833  27.6604083  68.2086993  46.5653833  27.9714083
  67.8706993  47.1043833  27.5134083  61.8426993  51.9713833  21.8344083
  61.6956993  51.1953833  22.2054083  62.5316993  51.8243833  21.3194083
  61.9226993  51.8343833  21.8134083  61.5136993  35.7143833  19.8224083
  61.6106993  35.6073833  20.6834083  60.8056993  36.2203833  19.7574083
  61.4236993  35.7733833  19.9404083  64.1346993  51.4873833  20.2364083
  64.7566993  51.6503833  20.8264083  64.1706993  52.1783833  19.7044083
  64.2316993  51.6133833  20.2454083  67.4016993  50.5063833  36.5094083
  67.5656993  50.7893833  37.3184083  67.6646993  51.1673833  36.0044083
  67.4646993  50.6463833  36.5544083  58.6356993  44.0213833  21.0654083
  58.9596993  43.2423833  20.8434083  59.2816993  44.3893833  21.5204083
  58.7786993  43.9603833  21.0994083  66.9416993  44.9633833  31.8324083
  66.7866993  45.5733833  32.4364083  67.4756993  44.4053833  32.2384083
  66.9976993  44.9713833  31.9814083  55.6326993  35.6823833  22.0334083
  55.7616993  34.9743833  21.5414083  55.2656993  35.3643833  22.7584083
  55.5976993  35.5303833  22.0684083  65.3256993  43.3633833  22.4904083
  65.3846993  44.0133833  23.0694083  65.1366993  42.6673833  22.9814083
  65.3066993  43.3563833  22.6484083  70.5516993  47.6923833  28.3594083
  70.0726993  47.9903833  27.6934083  70.1956993  46.9163833  28.5374083
  70.4286993  47.6213833  28.2874083  59.8216993  37.8803833  19.0024083
  59.3106993  37.9333833  18.2964083  60.6056993  38.1203833  18.7064083
  59.8616993  37.9233833  18.8544083  64.5486993  45.4103833  26.9214083
  63.7016993  45.2163833  27.0024083  64.8726993  45.2453833  27.7144083
  64.4706993  45.3573833  27.0504083  61.3006993  52.1403833  17.8074083
  61.7396993  51.4433833  18.0954083  61.5076993  52.7643833  18.3804083
  61.3966993  52.1293833  17.9344083  58.3966993  45.1033833  29.2374083
  59.1186993  45.5913833  29.2004083  58.1266993  45.0733833  28.4084083
  58.4636993  45.1713833  29.1094083  61.6266993  40.2743833  25.9724083
  62.4726993  40.0843833  26.0704083  61.2566993  39.4973833  25.8344083
  61.6966993  40.1313833  25.9664083  56.4476993  41.6123833  22.6274083
  56.9366993  41.3203833  23.2884083  56.5766993  41.0193833  22.0004083
  56.5386993  41.4813833  22.6324083  60.9726993  43.0463833  18.1134083
  60.3626993  42.6413833  18.5874083  60.5866993  43.1643833  17.3404083
  60.8256993  43.0033833  18.0694083  57.7916993  46.1553833  33.5154083
  57.3706993  45.6373833  32.9544083  57.4396993  46.9413833  33.3724083
  57.6776993  46.1953833  33.4114083  62.4276993  41.5073833  20.8234083
  62.6996993  42.3333833  20.8904083  61.5646993  41.5823833  20.7274083
  62.3406993  41.6403833  20.8184083  70.4006993  38.6293833  35.4554083
  69.8756993  39.0883833  35.9794083  70.0396993  37.8343833  35.4494083
  70.2696993  38.5793833  35.5314083  55.9076993  37.4773833  27.3594083
  55.9516993  37.8213833  26.5584083  56.6626993  37.7143833  27.7264083
  56.0256993  37.5633833  27.2954083  68.8926993  42.1983833  35.5314083
  68.9656993  42.3023833  36.3944083  68.2586993  42.7563833  35.3104083
  68.8096993  42.2963833  35.6264083  70.4746993  48.9413833  19.4264083
  70.8086993  48.1353833  19.4614083  69.7196993  48.8693833  19.8564083
  70.4126993  48.8113833  19.4954083  70.9566993  40.7753833  25.0854083
  70.2116993  40.4523833  25.4034083  70.9586993  41.6013833  25.3654083
  70.8466993  40.8493833  25.1734083  67.8486993  46.8163833  18.8294083
  68.5326993  46.3023833  18.6604083  67.4316993  46.8623833  18.0644083
  67.8876993  46.7473833  18.6914083  62.5306993  47.9663833  30.1334083
  62.2326993  48.5583833  30.7004083  62.5856993  48.4083833  29.3844083
  62.4946993  48.1193833  30.1064083  60.5096993  46.9163833  33.5314083
  59.7036993  46.6263833  33.6984083  60.4206993  47.7843833  33.5374083
  60.3776993  47.0013833  33.5564083  69.8686993  37.1053833  32.5464083
  70.6126993  37.5573833  32.4834083  69.3026993  37.5753833  32.0774083
  69.8956993  37.2423833  32.4684083  65.0466993  44.3893833  29.6244083
  65.5226993  44.7633833  30.2524083  64.2236993  44.5233833  29.8834083
  64.9956993  44.4643833  29.7554083  61.7566993  39.9923833  32.3654083
  61.9176993  39.2483833  32.7924083  61.7116993  39.7433833  31.5304083
  61.7736993  39.8453833  32.3054083  64.3106993  51.7823833  24.8524083
  64.8566993  52.4613833  24.9064083  63.9606993  51.8643833  24.0574083
  64.3396993  51.8953833  24.7424083  63.5086993  35.8003833  32.2454083
  64.2136993  36.1203833  31.8434083  63.7496993  34.9933833  32.4724083
  63.6476993  35.7283833  32.2194083  62.4936993  50.0103833  28.2414083
  61.8696993  50.5923833  28.0594083  62.7416993  49.7243833  27.4554083
  62.4376993  50.0543833  28.0984083  66.8026993  46.6443833  35.2304083
  67.5596993  46.9303833  34.9044083  66.2556993  46.6963833  34.5524083
  66.8336993  46.6943833  35.0814083  70.7116993  49.1943833  33.7344083
  71.0576993  49.4643833  34.4884083  71.0056993  49.7763833  33.1544083
  70.8066993  49.3203833  33.7604083  64.0876993  44.7863833  18.1564083
  63.2826993  44.6093833  17.8714083  64.0546993  45.6373833  18.3484083
  63.9636993  44.8853833  18.1434083  60.0176993  40.8533833  28.3064083
  60.4576993  40.7503833  27.5604083  60.5626993  40.5403833  28.9114083
  60.1626993  40.7923833  28.2854083  68.0336993  39.9553833  33.8984083
  67.3856993  40.4253833  34.2464083  68.5986993  39.8663833  34.5574083
  68.0216993  40.0113833  34.0474083  67.7216993  41.4923833  30.1964083
  68.0236993  41.9123833  30.8994083  67.7576993  40.6523833  30.4284083
  67.7716993  41.4303833  30.3344083  65.1466993  51.6593833  34.1214083
  65.6246993  51.0593833  33.7054083  64.7956993  51.2163833  34.7864083
  65.1656993  51.5053833  34.1584083  70.2696993  40.9393833  22.4484083
  70.4766993  40.7383833  23.2724083  71.0256993  41.2073833  22.1064083
  70.4116993  40.9493833  22.5194083  63.5646993  35.8383833  28.3534083
  62.7386993  35.6893833  28.5904083  63.5246993  35.8733833  27.4824083
  63.4366993  35.8213833  28.2594083  65.2056993  46.8783833  33.1414083
  64.4106993  46.8143833  33.4924083  65.2766993  47.7253833  32.9464083
  65.0986993  46.9933833  33.1644083  56.1296993  36.2363833  34.3884083
  55.9896993  37.0313833  34.0574083  55.3436993  35.9933833  34.6774083
  55.9926993  36.3183833  34.3824083  61.0356993  53.0853833  28.4584083
  61.0466993  53.1443833  29.3284083  60.6106993  52.3383833  28.3084083
  60.9746993  52.9833833  28.5644083  59.1936993  38.9803833  21.6134083
  59.3196993  38.6513833  20.8154083  58.3816993  38.7313833  21.8124083
  59.0926993  38.8953833  21.5254083  67.9506993  46.1333833  24.6574083
  68.0266993  46.4743833  25.4564083  68.1196993  45.2863833  24.7784083
  67.9866993  46.0583833  24.7934083  65.4726993  45.4073833  24.2224083
  65.1746993  45.0923833  24.9794083  66.1676993  45.8803833  24.4574083
  65.5316993  45.4303833  24.3694083  65.6946993  49.5253833  32.2494083
  66.3816993  49.4113833  32.7744083  65.8286993  50.3163833  31.9054083
  65.8156993  49.6253833  32.2764083  68.3836993  42.7993833  32.6364083
  68.1286993  42.0803833  33.0584083  69.2046993  42.9153833  32.9064083
  68.4676993  42.7103833  32.7384083  57.7996993  52.5833833  33.9004083
  57.1456993  52.0143833  33.9984083  57.4246993  53.3563833  34.0514083
  57.6476993  52.6133833  33.9374083  66.3176993  43.9893833  35.8234083
  66.6406993  44.6753833  35.3914083  65.6136993  44.3123833  36.2254083
  66.2606993  44.1383833  35.8184083  69.4016993  52.3633833  26.7524083
  68.9506993  53.0063833  27.1314083  70.1096993  52.2843833  27.2574083
  69.4396993  52.4463833  26.8834083  66.1026993  47.4533833  29.6824083
  65.4086993  47.8553833  30.0254083  66.7796993  47.8863833  30.0214083
  66.0996993  47.5763833  29.7834083  59.1706993  40.9913833  32.0294083
  59.5456993  41.6103833  31.5424083  59.8446993  40.5173833  32.3144083
  59.3256993  41.0133833  31.9994083  56.9456993  39.4393833  31.3044083
  57.0226993  39.2703833  30.4514083  57.6916993  39.8453833  31.5014083
  57.0666993  39.4743833  31.2074083  59.4996993  36.8493833  33.7154083
  59.4186993  36.0053833  33.9214083  59.1856993  36.8933833  32.9024083
  59.4416993  36.7313833  33.6254083  66.4246993  49.0443833  22.8514083
  66.2196993  49.8773833  22.6924083  65.6496993  48.6623833  22.9734083
  66.2796993  49.1113833  22.8464083  56.3426993  44.6653833  31.5284083
  56.6626993  44.8843833  30.7474083  56.2426993  43.8003833  31.4734083
  56.3746993  44.5703833  31.4054083  57.7986993  40.6013833  18.1464083
  57.1266993  40.6153833  18.7024083  57.8936993  39.7533833  17.9624083
  57.7136993  40.4783833  18.2014083  67.4856993  37.0253833  34.8824083
  67.5776993  37.7373833  35.3764083  66.8486993  36.5803833  35.2794083
  67.4046993  37.0643833  35.0144083  66.4796993  37.2153833  25.7364083
  65.7796993  37.7333833  25.6804083  66.5176993  36.8353833  24.9524083
  66.3816993  37.2363833  25.6124083  61.7866993  49.3063833  19.2604083
  62.2276993  49.3863833  20.0084083  60.9816993  49.0903833  19.5184083
  61.7326993  49.2863833  19.4094083  70.0776993  37.7313833  28.5364083
  70.9326993  37.8303833  28.6814083  69.7086993  38.2843833  29.1014083
  70.1496993  37.8283833  28.6414083  61.1056993  43.9573833  32.9134083
  60.7096993  44.7313833  32.9884083  60.6996993  43.5843833  32.2374083
  60.9876993  44.0163833  32.8244083  70.3816993  43.0113833  27.0274083
  71.0476993  43.5523833  27.1874083  70.0366993  43.3223833  26.2884083
  70.4286993  43.1373833  26.9424083  59.1156993  48.3763833  19.8614083
  58.8716993  48.0693833  20.6414083  59.0826993  47.6733833  19.3454083
  59.0746993  48.2273833  19.9004083  61.9346993  46.6213833  18.6044083
  61.1166993  46.3533833  18.7444083  61.9066993  47.4733833  18.7894083
  61.8096993  46.7083833  18.6524083  61.5346993  36.9343833  30.3634083
  60.6706993  37.0183833  30.4434083  61.7546993  36.4203833  31.0324083
  61.4396993  36.8713833  30.4744083  65.6376993  37.6823833  28.7374083
  64.9006993  37.2283833  28.8504083  66.2086993  37.2803833  29.2604083
  65.6126993  37.5553833  28.8314083  68.3696993  48.5303833  30.5254083
  68.5756993  48.8313833  31.3174083  68.3086993  49.2523833  30.0404083
  68.3906993  48.6813833  30.5704083  67.9036993  52.7443833  34.7714083
  67.1506993  52.7263833  34.3304083  68.0716993  53.5963833  34.8554083
  67.8176993  52.8673833  34.7184083  63.1406993  42.0113833  33.9414083
  62.8186993  41.4353833  33.3714083  62.7816993  42.7663833  33.6954083
  63.0406993  42.0373833  33.8214083  63.9366993  35.2633833  18.5684083
  64.0146993  35.5103833  17.7354083  63.1936993  35.6403833  18.8264083
  63.8386993  35.3553833  18.4834083  61.5756993  52.3673833  34.1894083
  61.6166993  52.4933833  35.0524083  62.2266993  51.8073833  34.0334083
  61.6776993  52.3033833  34.2944083  58.7546993  37.0173833  31.0114083
  58.4116993  36.2503833  30.7774083  58.0596993  37.5413833  31.0754083
  58.6016993  36.9813833  30.9864083  67.8006993  35.8733833  27.9884083
  68.4706993  36.4173833  28.1154083  67.2976993  36.2973833  27.4154083
  67.8256993  36.0163833  27.9224083  59.1686993  50.7503833  35.5494083
  59.7636993  51.1813833  36.0214083  58.8046993  51.3743833  35.0604083
  59.2026993  50.9063833  35.5464083  67.1596993  41.6813833  25.4814083
  67.7106993  41.0743833  25.7814083  66.7346993  41.9443833  26.1964083
  67.1786993  41.6303833  25.6304083  57.4076993  40.3313833  24.9674083
  57.0396993  40.6333833  25.6984083  57.9416993  39.7023833  25.2514083
  57.4316993  40.2833833  25.1174083  57.0956993  48.7393833  32.4784083
  56.5216993  49.1553833  32.9874083  57.8286993  49.2043833  32.5734083
  57.1196993  48.8693833  32.5674083  69.1296993  43.5123833  22.0434083
  69.1976993  42.6623833  22.2244083  68.3066993  43.5983833  21.7654083
  69.0176993  43.3993833  22.0294083  58.8816993  52.0063833  21.2534083
  58.7366993  52.1623833  20.4074083  59.7476993  52.0853833  21.3314083
  58.9886993  52.0413833  21.1404083  63.0486993  44.4033833  20.9814083
  63.1486993  44.5423833  20.1264083  63.8666993  44.3433833  21.2774083
  63.1836993  44.4143833  20.8984083  68.2836993  48.7323833  20.7834083
  68.0326993  48.6043833  21.6094083  67.9666993  48.0373833  20.3624083
  68.1996993  48.6113833  20.8434083  62.1876993  37.3783833  34.0974083
  62.4216993  36.8023833  33.4844083  61.3456993  37.1973833  34.2384083
  62.0976993  37.2663833  34.0274083  69.8146993  44.9963833  36.5494083
  70.6856993  44.9603833  36.5134083  69.5956993  45.4163833  35.8174083
  69.9116993  45.0523833  36.4364083  59.5686993  50.8213833  27.7304083
  59.4896993  50.0113833  27.4144083  59.1246993  51.3083833  27.1584083
  59.4916993  50.7733833  27.5994083  65.1696993  46.9403833  20.2134083
  65.8866993  46.5933833  19.8574083  65.1356993  47.7403833  19.8654083
  65.2706993  47.0073833  20.1094083  57.1406993  53.0653833  31.3114083
  57.6336993  53.0093833  32.0294083  57.3286993  52.3323833  30.8764083
  57.2416993  52.9483833  31.3534083  66.5786993  35.5813833   4.4521673
  66.3336993  36.0693833   3.7721673  67.4416993  35.5083833   4.3521673
  66.6696993  35.6423833   4.3371673  66.3876993  42.4973833   9.1231673
  65.8636993  43.0933833   9.4861673  66.7846993  42.1293833   9.8071673
  66.3686993  42.5313833   9.2781673  56.2566993  46.6373833   4.5791673
  55.8156993  46.7553833   5.3221673  55.9736993  45.8623833   4.2941673
  56.1496993  46.5403833   4.6471673  69.0586993  43.5643833   5.7991673
  69.1386993  43.5683833   4.9301673  68.4746993  42.9323833   5.9481673
  68.9836993  43.4713833   5.6931673  58.7656993  47.3333833   3.6581673
  59.3736993  47.1633833   4.2611673  58.0146993  47.1933833   4.0791673
  58.7446993  47.2873833   3.8091673  63.0476993  36.6683833   3.6071673
  62.9776993  37.3453833   3.0611673  63.7886993  36.2803833   3.3581673
  63.1466993  36.7113833   3.4891673  56.1966993  49.3723833  10.8341673
  56.3256993  49.0923833  11.6501673  55.5866993  48.8313833  10.5251673
  56.1256993  49.2513833  10.9091673  62.7706993  46.8973833  15.9011673
  62.5346993  46.8943833  16.7411673  62.0226993  46.7493833  15.4771673
  62.6246993  46.8743833  15.9621673  57.6426993  43.8933833   5.0361673
  57.1806993  43.5013833   4.4091673  58.3426993  43.3803833   5.1281673
  57.6776993  43.7603833   4.9571673  62.1506993  39.5033833  10.3831673
  62.8286993  39.5213833   9.8341673  62.1056993  38.6673833  10.6281673
  62.2436993  39.3823833  10.3381673  62.7526993  50.0893833  13.1641673
  62.8906993  50.8493833  12.7571673  63.5436993  49.7243833  13.1911673
  62.8896993  50.1483833  13.1081673  59.6436993  41.9933833   5.0591673
  60.4606993  41.8063833   5.3021673  59.1666993  41.3793833   5.4551673
  59.6936993  41.8753833   5.1541673  63.8476993  47.9743833   7.6691673
  64.1956993  47.1753833   7.6991673  64.5126993  48.4783833   7.4141673
  63.9976993  47.9303833   7.6361673  63.9046993  47.4233833   3.8801673
  64.2356993  46.7793833   4.3661673  64.1446993  47.2123833   3.0691673
  63.9886993  47.2973833   3.8321673  65.8726993  41.5543833  15.2191673
  65.0246993  41.4553833  15.0411673  65.9016993  42.2993833  15.6731673
  65.7516993  41.6503833  15.2601673  60.2406993  37.0873833   4.3251673
  59.9446993  37.5883833   3.6751673  61.1076993  37.1653833   4.2681673
  60.3246993  37.1733833   4.2211673  70.4306993  34.5143833  14.3331673
  70.2726993  35.2833833  13.9511673  69.6586993  34.2943833  14.6771673
  70.2926993  34.5953833  14.3281673  63.2196993  36.2293833   6.5481673
  63.2926993  37.0893833   6.6771673  63.1816993  36.1543833   5.6801673
  63.2246993  36.3453833   6.4391673  56.0986993  41.6543833   8.0491673
  55.8426993  42.4853833   7.9741673  55.4346993  41.2713833   8.4661673
  55.9626993  41.7203833   8.1001673  56.0086993  51.3643833   5.9491673
  55.4166993  51.9223833   5.6361673  56.4346993  51.0953833   5.2371673
  55.9846993  51.4063833   5.7981673  61.8486993  49.2083833   3.4291673
  61.2696993  48.9333833   4.0211673  62.4726993  48.5993833   3.4541673
  61.8556993  49.0783833   3.5201673  66.1596993  51.8883833   2.9411673
  66.3736993  52.4153833   3.6031673  66.9266993  51.7143833   2.5621673
  66.3046993  51.9403833   2.9831673  59.1276993  36.4713833   8.5401673
  58.6066993  35.8433833   8.2321673  59.7186993  36.0343833   9.0111673
  59.1386993  36.3133833   8.5641673  62.4336993  38.6043833  17.8381673
  62.5506993  38.1503833  17.1021673  62.7216993  39.4023833  17.6351673
  62.4936993  38.6553833  17.6991673  57.5536993  50.0343833   3.8801673
  58.2096993  49.4593833   3.8951673  57.9426993  50.7833833   3.6591673
  57.7086993  50.0593833   3.8501673  68.5986993  51.8983833  11.2461673
  69.3426993  52.3543833  11.2361673  68.4776993  51.6843833  10.4091673
  68.6906993  51.9343833  11.1211673  58.1666993  38.2013833  16.8221673
  57.3886993  37.8113833  16.7501673  58.6576993  37.7893833  16.2311673
  58.1236993  38.0823833  16.7241673  58.3716993  48.5213833   7.3801673
  58.7946993  48.1653833   6.7061673  58.6956993  48.0993833   8.0721673
  58.4816993  48.4063833   7.3831673  61.6026993  51.3733833   6.6761673
  62.4466993  51.4773833   6.4811673  61.3056993  52.1913833   6.7441673
  61.6836993  51.5093833   6.6571673  64.8156993  35.8443833  15.9901673
  64.9936993  35.0353833  15.7151673  64.6726993  36.2853833  15.2511673
  64.8206993  35.7903833  15.8401673  65.4096993  40.7703833   4.7631673
  65.6966993  40.5383833   3.9731673  66.1416993  40.8493833   5.2321673
  65.5596993  40.7473833   4.7161673  60.6006993  52.5923833  12.4161673
  60.8926993  52.5253833  13.2361673  59.9746993  51.9873833  12.3711673
  60.5516993  52.4933833  12.5311673  55.5146993  38.7493833  14.4081673
  55.5106993  39.3363833  15.0541673  56.1086993  39.0613833  13.8511673
  55.6016993  38.8823833  14.4211673  67.8526993  49.0833833  14.9501673
  67.8186993  49.4653833  15.7341673  68.7066993  49.0413833  14.7791673
  67.9736993  49.1333833  15.0411673  56.4516993  38.3443833   3.3231673
  56.3376993  37.4803833   3.3541673  55.9766993  38.6383833   3.9931673
  56.3646993  38.2603833   3.4261673  58.5936993  50.7543833  11.5381673
  57.8956993  50.2463833  11.6641673  58.8536993  50.5493833  10.7301673
  58.5286993  50.6493833  11.4371673  65.7556993  39.5523833   2.0681673
  65.2476993  38.8903833   1.8141673  65.8076993  40.0563833   1.3581673
  65.6886993  39.5293833   1.9261673  66.3046993  52.2473833  12.4481673
  67.0726993  52.1673833  12.0421673  65.7216993  52.1263833  11.8101673
  66.3316993  52.2173833  12.2941673  65.7556993  36.4933833   1.9591673
  65.3006993  36.0913833   1.3331673  66.5286993  36.6483833   1.5841673
  65.8026993  36.4573833   1.8111673  64.3536993  38.8603833   6.4811673
  64.4276993  39.4283833   5.8231673  64.4746993  39.3523833   7.1911673
  64.3816993  39.0173833   6.4891673  69.5786993  48.6953833   4.8931673
  70.2796993  48.2133833   5.0821673  68.9186993  48.1263833   4.9381673
  69.5846993  48.5403833   4.9271673  59.9546993  49.6053833  14.1051673
  60.7956993  49.6683833  13.8831673  59.9176993  50.0023833  14.8811673
  60.0736993  49.6733833  14.1871673  58.9616993  34.6833833   4.8291673
  59.4976993  35.3713833   4.8191673  58.9646993  34.4093833   4.0011673
  59.0406993  34.7443833   4.7051673  61.9176993  45.1163833   8.8541673
  62.0896993  44.9063833   9.6831673  61.2626993  44.5823833   8.6381673
  61.8466993  45.0063833   8.9451673  68.1456993  39.0303833  12.3691673
  68.0506993  39.3493833  13.1751673  67.5526993  38.3913833  12.3311673
  68.0436993  38.9823833  12.4831673  62.6676993  45.0543833  11.4441673
  62.7206993  45.9013833  11.6461673  62.3826993  44.6843833  12.1811673
  62.6336993  45.1243833  11.5821673  68.8446993  45.7493833  10.5741673
  68.3306993  45.3373833  11.1451673  68.7186993  46.5933833  10.7551673
  68.7506993  45.8133833  10.6851673  69.4016993  34.9743833   5.2051673
  69.4506993  34.6563833   6.0161673  69.7246993  34.3303833   4.7121673
  69.4566993  34.8323833   5.2521673  55.4886993  49.4253833  17.6551673
  56.2446993  49.7743833  17.9131673  55.6656993  48.5723833  17.5981673
  55.6266993  49.3503833  17.6851673  59.4096993  38.4933833   6.4831673
  59.6816993  38.0633833   5.7751673  59.2336993  37.8573833   7.0541673
  59.4236993  38.3363833   6.4631673  59.2336993  45.9203833   6.0321673
  60.0846993  45.8403833   5.8591673  58.8766993  45.2383833   5.6201673
  59.3066993  45.8073833   5.9451673  58.0006993  52.6453833   7.2691673
  57.3276993  52.1473833   7.0241673  58.4036993  52.8303833   6.5181673
  57.9606993  52.5993833   7.1221673  57.5506993  39.5953833   9.5651673
  58.3936993  39.8153833   9.5221673  57.1616993  40.1683833   9.0341673
  57.6176993  39.7123833   9.4801673  61.6016993  45.9273833   4.2671673
  62.3146993  46.4223833   4.3571673  61.8236993  45.3603833   3.6411673
  61.7396993  45.9163833   4.1881673  55.7576993  47.5703833   7.5871673
  55.0906993  48.0583833   7.8631673  56.4376993  48.1153833   7.6161673
  55.7596993  47.7223833   7.6321673  63.4046993  41.2803833  17.6831673
  62.9206993  41.8573833  18.1251673  63.3766993  41.5753833  16.8621673
  63.3286993  41.4093833  17.6271673  55.8236993  44.2543833   2.6901673
  55.6386993  43.4153833   2.8421673  56.4826993  44.2183833   2.1201673
  55.8936993  44.1253833   2.6281673  66.1246993  49.6303833   6.5941673
  65.6016993  50.2643833   6.3011673  66.4346993  49.2663833   5.8651673
  66.0926993  49.6703833   6.4431673  55.9956993  48.4183833   2.2651673
  56.5476993  48.9873833   2.6291673  55.7636993  47.9033833   2.9301673
  56.0426993  48.4263833   2.4171673  60.1996993  47.4183833   9.3541673
  60.6666993  47.7073833  10.0321673  60.7716993  46.9403833   8.9001673
  60.3536993  47.3903833   9.3871673  68.6356993  39.4323833   7.0911673
  68.9796993  39.5843833   7.8781673  68.1826993  38.6943833   7.2041673
  68.6196993  39.3453833   7.2241673  56.7656993  45.0883833   7.8981673
  57.1966993  44.9593833   7.1511673  56.5606993  45.9363833   7.8721673
  56.7986993  45.1943833   7.7841673  60.8496993  48.6043833   6.1801673
  60.9756993  49.4473833   6.3671673  61.5176993  48.2053833   6.5761673
  60.9676993  48.6703833   6.2661673  58.9796993  42.0873833  16.0421673
  58.4436993  41.5813833  16.5101673  58.9996993  41.6973833  15.2621673
  58.9026993  41.9543833  15.9961673  59.6316993  43.3143833   7.7811673
  58.8506993  43.2553833   7.3981673  59.7036993  42.5623833   8.2181673
  59.5266993  43.1953833   7.7891673  60.0616993  43.0513833  11.2491673
  60.0866993  42.3763833  10.6981673  59.4156993  43.5473833  10.9371673
  59.9706993  43.0243833  11.1221673  69.9566993  40.7643833   9.6451673
  69.2946993  41.0923833  10.1081673  70.1436993  41.3983833   9.0761673
  69.8866993  40.9063833   9.6291673  64.1616993  51.8283833  10.6411673
  63.8846993  51.1873833  10.1181673  63.9536993  52.5543833  10.2031673
  64.0906993  51.8413833  10.4991673  66.6016993  36.6703833  13.0741673
  66.7506993  35.8453833  12.8311673  66.9806993  36.7253833  13.8581673
  66.6796993  36.5563833  13.1541673  68.1496993  38.7333833   3.1561673
  68.6396993  39.4503833   3.0791673  67.3596993  38.9943833   2.8931673
  68.1056993  38.8773833   3.1061673  57.8606993  44.4063833  16.8081673
  57.8236993  44.9073833  16.0941673  58.1916993  43.6543833  16.5131673
  57.9036993  44.3683833  16.6591673  69.4636993  46.6113833  15.0661673
  69.9476993  47.3293833  15.1641673  69.8576993  46.1843833  14.4151673
  69.5936993  46.6543833  14.9841673  63.7596993  49.4563833  16.2431673
  64.1136993  49.2783833  17.0201673  63.3236993  48.7273833  16.0441673
  63.7476993  49.3223833  16.3291673  64.7316993  40.2033833   8.8811673
  65.2116993  40.9023833   9.0891673  65.1046993  39.5563833   9.3321673
  64.8576993  40.2113833   8.9781673  67.9376993  50.3083833   8.9801673
  67.3346993  50.0123833   8.4231673  68.4826993  50.7603833   8.4711673
  67.9286993  50.3313833   8.8221673  67.9506993  47.1593833   8.3801673
  67.1536993  47.3833833   8.6541673  68.2086993  46.5653833   8.9651673
  67.8706993  47.1043833   8.5071673  61.8426993  51.9713833   2.8281673
  61.6956993  51.1953833   3.1991673  62.5316993  51.8243833   2.3131673
  61.9226993  51.8343833   2.8071673  67.4016993  50.5063833  17.5031673
  67.5656993  50.7893833  18.3121673  67.6646993  51.1673833  16.9981673
  67.4646993  50.6463833  17.5481673  58.6356993  44.0213833   2.0591673
  58.9596993  43.2423833   1.8371673  59.2816993  44.3893833   2.5141673
  58.7786993  43.9603833   2.0931673  66.9416993  44.9633833  12.8261673
  66.7866993  45.5733833  13.4301673  67.4756993  44.4053833  13.2321673
  66.9976993  44.9713833  12.9751673  55.6326993  35.6823833   3.0271673
  55.7616993  34.9743833   2.5351673  55.2656993  35.3643833   3.7521673
  55.5976993  35.5303833   3.0621673  65.3256993  43.3633833   3.4841673
  65.3846993  44.0133833   4.0631673  65.1366993  42.6673833   3.9751673
  65.3066993  43.3563833   3.6421673  70.5516993  47.6923833   9.3531673
  70.0726993  47.9903833   8.6871673  70.1956993  46.9163833   9.5311673
  70.4286993  47.6213833   9.2811673  64.5486993  45.4103833   7.9151673
  63.7016993  45.2163833   7.9961673  64.8726993  45.2453833   8.7081673
  64.4706993  45.3573833   8.0441673  58.3966993  45.1033833  10.2311673
  59.1186993  45.5913833  10.1941673  58.1266993  45.0733833   9.4021673
  58.4636993  45.1713833  10.1031673  61.6266993  40.2743833   6.9661673
  62.4726993  40.0843833   7.0641673  61.2566993  39.4973833   6.8281673
  61.6966993  40.1313833   6.9601673  56.4476993  41.6123833   3.6211673
  56.9366993  41.3203833   4.2821673  56.5766993  41.0193833   2.9941673
  56.5386993  41.4813833   3.6261673  57.7916993  46.1553833  14.5091673
  57.3706993  45.6373833  13.9481673  57.4396993  46.9413833  14.3661673
  57.6776993  46.1953833  14.4051673  62.4276993  41.5073833   1.8171673
  62.6996993  42.3333833   1.8841673  61.5646993  41.5823833   1.7211673
  62.3406993  41.6403833   1.8121673  70.4006993  38.6293833  16.4491673
  69.8756993  39.0883833  16.9731673  70.0396993  37.8343833  16.4431673
  70.2696993  38.5793833  16.5251673  55.9076993  37.4773833   8.3531673
  55.9516993  37.8213833   7.5521673  56.6626993  37.7143833   8.7201673
  56.0256993  37.5633833   8.2891673  68.8926993  42.1983833  16.5251673
  68.9656993  42.3023833  17.3881673  68.2586993  42.7563833  16.3041673
  68.8096993  42.2963833  16.6201673  70.9566993  40.7753833   6.0791673
  70.2116993  40.4523833   6.3971673  70.9586993  41.6013833   6.3591673
  70.8466993  40.8493833   6.1671673  62.5306993  47.9663833  11.1271673
  62.2326993  48.5583833  11.6941673  62.5856993  48.4083833  10.3781673
  62.4946993  48.1193833  11.1001673  60.5096993  46.9163833  14.5251673
  59.7036993  46.6263833  14.6921673  60.4206993  47.7843833  14.5311673
  60.3776993  47.0013833  14.5501673  69.8686993  37.1053833  13.5401673
  70.6126993  37.5573833  13.4771673  69.3026993  37.5753833  13.0711673
  69.8956993  37.2423833  13.4621673  65.0466993  44.3893833  10.6181673
  65.5226993  44.7633833  11.2461673  64.2236993  44.5233833  10.8771673
  64.9956993  44.4643833  10.7491673  61.7566993  39.9923833  13.3591673
  61.9176993  39.2483833  13.7861673  61.7116993  39.7433833  12.5241673
  61.7736993  39.8453833  13.2991673  64.3106993  51.7823833   5.8461673
  64.8566993  52.4613833   5.9001673  63.9606993  51.8643833   5.0511673
  64.3396993  51.8953833   5.7361673  63.5086993  35.8003833  13.2391673
  64.2136993  36.1203833  12.8371673  63.7496993  34.9933833  13.4661673
  63.6476993  35.7283833  13.2131673  62.4936993  50.0103833   9.2351673
  61.8696993  50.5923833   9.0531673  62.7416993  49.7243833   8.4491673
  62.4376993  50.0543833   9.0921673  66.8026993  46.6443833  16.2241673
  67.5596993  46.9303833  15.8981673  66.2556993  46.6963833  15.5461673
  66.8336993  46.6943833  16.0751673  70.7116993  49.1943833  14.7281673
  71.0576993  49.4643833  15.4821673  71.0056993  49.7763833  14.1481673
  70.8066993  49.3203833  14.7541673  60.0176993  40.8533833   9.3001673
  60.4576993  40.7503833   8.5541673  60.5626993  40.5403833   9.9051673
  60.1626993  40.7923833   9.2791673  68.0336993  39.9553833  14.8921673
  67.3856993  40.4253833  15.2401673  68.5986993  39.8663833  15.5511673
  68.0216993  40.0113833  15.0411673  67.7216993  41.4923833  11.1901673
  68.0236993  41.9123833  11.8931673  67.7576993  40.6523833  11.4221673
  67.7716993  41.4303833  11.3281673  65.1466993  51.6593833  15.1151673
  65.6246993  51.0593833  14.6991673  64.7956993  51.2163833  15.7801673
  65.1656993  51.5053833  15.1521673  70.2696993  40.9393833   3.4421673
  70.4766993  40.7383833   4.2661673  71.0256993  41.2073833   3.1001673
  70.4116993  40.9493833   3.5131673  63.5646993  35.8383833   9.3471673
  62.7386993  35.6893833   9.5841673  63.5246993  35.8733833   8.4761673
  63.4366993  35.8213833   9.2531673  65.2056993  46.8783833  14.1351673
  64.4106993  46.8143833  14.4861673  65.2766993  47.7253833  13.9401673
  65.0986993  46.9933833  14.1581673  56.1296993  36.2363833  15.3821673
  55.9896993  37.0313833  15.0511673  55.3436993  35.9933833  15.6711673
  55.9926993  36.3183833  15.3761673  61.0356993  53.0853833   9.4521673
  61.0466993  53.1443833  10.3221673  60.6106993  52.3383833   9.3021673
  60.9746993  52.9833833   9.5581673  59.1936993  38.9803833   2.6071673
  59.3196993  38.6513833   1.8091673  58.3816993  38.7313833   2.8061673
  59.0926993  38.8953833   2.5191673  67.9506993  46.1333833   5.6511673
  68.0266993  46.4743833   6.4501673  68.1196993  45.2863833   5.7721673
  67.9866993  46.0583833   5.7871673  65.4726993  45.4073833   5.2161673
  65.1746993  45.0923833   5.9731673  66.1676993  45.8803833   5.4511673
  65.5316993  45.4303833   5.3631673  65.6946993  49.5253833  13.2431673
  66.3816993  49.4113833  13.7681673  65.8286993  50.3163833  12.8991673
  65.8156993  49.6253833  13.2701673  68.3836993  42.7993833  13.6301673
  68.1286993  42.0803833  14.0521673  69.2046993  42.9153833  13.9001673
  68.4676993  42.7103833  13.7321673  57.7996993  52.5833833  14.8941673
  57.1456993  52.0143833  14.9921673  57.4246993  53.3563833  15.0451673
  57.6476993  52.6133833  14.9311673  66.3176993  43.9893833  16.8171673
  66.6406993  44.6753833  16.3851673  65.6136993  44.3123833  17.2191673
  66.2606993  44.1383833  16.8121673  69.4016993  52.3633833   7.7461673
  68.9506993  53.0063833   8.1251673  70.1096993  52.2843833   8.2511673
  69.4396993  52.4463833   7.8771673  66.1026993  47.4533833  10.6761673
  65.4086993  47.8553833  11.0191673  66.7796993  47.8863833  11.0151673
  66.0996993  47.5763833  10.7771673  59.1706993  40.9913833  13.0231673
  59.5456993  41.6103833  12.5361673  59.8446993  40.5173833  13.3081673
  59.3256993  41.0133833  12.9931673  56.9456993  39.4393833  12.2981673
  57.0226993  39.2703833  11.4451673  57.6916993  39.8453833  12.4951673
  57.0666993  39.4743833  12.2011673  59.4996993  36.8493833  14.7091673
  59.4186993  36.0053833  14.9151673  59.1856993  36.8933833  13.8961673
  59.4416993  36.7313833  14.6191673  66.4246993  49.0443833   3.8451673
  66.2196993  49.8773833   3.6861673  65.6496993  48.6623833   3.9671673
  66.2796993  49.1113833   3.8401673  56.3426993  44.6653833  12.5221673
  56.6626993  44.8843833  11.7411673  56.2426993  43.8003833  12.4671673
  56.3746993  44.5703833  12.3991673  67.4856993  37.0253833  15.8761673
  67.5776993  37.7373833  16.3701673  66.8486993  36.5803833  16.2731673
  67.4046993  37.0643833  16.0081673  66.4796993  37.2153833   6.7301673
  65.7796993  37.7333833   6.6741673  66.5176993  36.8353833   5.9461673
  66.3816993  37.2363833   6.6061673  70.0776993  37.7313833   9.5301673
  70.9326993  37.8303833   9.6751673  69.7086993  38.2843833  10.0951673
  70.1496993  37.8283833   9.6351673  61.1056993  43.9573833  13.9071673
  60.7096993  44.7313833  13.9821673  60.6996993  43.5843833  13.2311673
  60.9876993  44.0163833  13.8181673  70.3816993  43.0113833   8.0211673
  71.0476993  43.5523833   8.1811673  70.0366993  43.3223833   7.2821673
  70.4286993  43.1373833   7.9361673  61.5346993  36.9343833  11.3571673
  60.6706993  37.0183833  11.4371673  61.7546993  36.4203833  12.0261673
  61.4396993  36.8713833  11.4681673  65.6376993  37.6823833   9.7311673
  64.9006993  37.2283833   9.8441673  66.2086993  37.2803833  10.2541673
  65.6126993  37.5553833   9.8251673  68.3696993  48.5303833  11.5191673
  68.5756993  48.8313833  12.3111673  68.3086993  49.2523833  11.0341673
  68.3906993  48.6813833  11.5641673  67.9036993  52.7443833  15.7651673
  67.1506993  52.7263833  15.3241673  68.0716993  53.5963833  15.8491673
  67.8176993  52.8673833  15.7121673  63.1406993  42.0113833  14.9351673
  62.8186993  41.4353833  14.3651673  62.7816993  42.7663833  14.6891673
  63.0406993  42.0373833  14.8151673  61.5756993  52.3673833  15.1831673
  61.6166993  52.4933833  16.0461673  62.2266993  51.8073833  15.0271673
  61.6776993  52.3033833  15.2881673  58.7546993  37.0173833  12.0051673
  58.4116993  36.2503833  11.7711673  58.0596993  37.5413833  12.0691673
  58.6016993  36.9813833  11.9801673  67.8006993  35.8733833   8.9821673
  68.4706993  36.4173833   9.1091673  67.2976993  36.2973833   8.4091673
  67.8256993  36.0163833   8.9161673  59.1686993  50.7503833  16.5431673
  59.7636993  51.1813833  17.0151673  58.8046993  51.3743833  16.0541673
  59.2026993  50.9063833  16.5401673  67.1596993  41.6813833   6.4751673
  67.7106993  41.0743833   6.7751673  66.7346993  41.9443833   7.1901673
  67.1786993  41.6303833   6.6241673  57.4076993  40.3313833   5.9611673
  57.0396993  40.6333833   6.6921673  57.9416993  39.7023833   6.2451673
  57.4316993  40.2833833   6.1111673  57.0956993  48.7393833  13.4721673
  56.5216993  49.1553833  13.9811673  57.8286993  49.2043833  13.5671673
  57.1196993  48.8693833  13.5611673  69.1296993  43.5123833   3.0371673
  69.1976993  42.6623833   3.2181673  68.3066993  43.5983833   2.7591673
  69.0176993  43.3993833   3.0231673  58.8816993  52.0063833   2.2471673
  58.7366993  52.1623833   1.4011673  59.7476993  52.0853833   2.3251673
  58.9886993  52.0413833   2.1341673  68.2836993  48.7323833   1.7771673
  68.0326993  48.6043833   2.6031673  67.9666993  48.0373833   1.3561673
  68.1996993  48.6113833   1.8371673  62.1876993  37.3783833  15.0911673
  62.4216993  36.8023833  14.4781673  61.3456993  37.1973833  15.2321673
  62.0976993  37.2663833  15.0211673  69.8146993  44.9963833  17.5431673
  70.6856993  44.9603833  17.5071673  69.5956993  45.4163833  16.8111673
  69.9116993  45.0523833  17.4301673  59.5686993  50.8213833   8.7241673
  59.4896993  50.0113833   8.4081673  59.1246993  51.3083833   8.1521673
  59.4916993  50.7733833   8.5931673  57.1406993  53.0653833  12.3051673
  57.6336993  53.0093833  13.0231673  57.3286993  52.3323833  11.8701673
  57.2416993  52.9483833  12.3471673  66.5786993  17.1032753  80.4771313
  66.3336993  17.5912753  79.7971313  67.4416993  17.0302753  80.3771313
  66.6696993  17.1642753  80.3621313  66.3876993  24.0192753  85.1481313
  65.8636993  24.6152753  85.5111313  66.7846993  23.6512753  85.8321313
  66.3686993  24.0532753  85.3031313  56.2566993  28.1592753  80.6041313
  55.8156993  28.2772753  81.3471313  55.9736993  27.3842753  80.3191313
  56.1496993  28.0622753  80.6721313  55.9996993  21.9512753  77.1111313
  55.2216993  22.1132753  76.7511313  56.0386993  21.0802753  77.1331313
  55.8906993  21.8462753  77.0611313  59.1386993  27.2142753  75.7831313
  58.7466993  26.8432753  75.0971313  59.0586993  26.6162753  76.4121313
  59.0686993  27.0712753  75.7741313  69.0586993  25.0862753  81.8241313
  69.1386993  25.0902753  80.9551313  68.4746993  24.4542753  81.9731313
  68.9836993  24.9932753  81.7181313  58.7656993  28.8552753  79.6831313
  59.3736993  28.6852753  80.2861313  58.0146993  28.7152753  80.1041313
  58.7446993  28.8092753  79.8341313  63.0476993  18.1902753  79.6321313
  62.9776993  18.8672753  79.0861313  63.7886993  17.8022753  79.3831313
  63.1466993  18.2332753  79.5141313  57.6566993  31.9462753  75.7601313
  58.1236993  32.0302753  75.0281313  58.1116993  31.3682753  76.2291313
  57.7926993  31.8732753  75.7211313  56.1966993  30.8942753  86.8591313
  56.3256993  30.6142753  87.6751313  55.5866993  30.3532753  86.5501313
  56.1256993  30.7732753  86.9341313  57.6426993  25.4152753  81.0611313
  57.1806993  25.0232753  80.4341313  58.3426993  24.9022753  81.1531313
  57.6776993  25.2822753  80.9821313  62.1506993  21.0252753  86.4081313
  62.8286993  21.0432753  85.8591313  62.1056993  20.1892753  86.6531313
  62.2436993  20.9042753  86.3631313  62.7526993  31.6112753  89.1891313
  62.8906993  32.3712753  88.7821313  63.5436993  31.2462753  89.2161313
  62.8896993  31.6702753  89.1331313  59.6436993  23.5152753  81.0841313
  60.4606993  23.3282753  81.3271313  59.1666993  22.9012753  81.4801313
  59.6936993  23.3972753  81.1791313  63.8476993  29.4962753  83.6941313
  64.1956993  28.6972753  83.7241313  64.5126993  30.0002753  83.4391313
  63.9976993  29.4522753  83.6611313  63.9046993  28.9452753  79.9051313
  64.2356993  28.3012753  80.3911313  64.1446993  28.7342753  79.0941313
  63.9886993  28.8192753  79.8571313  60.2406993  18.6092753  80.3501313
  59.9446993  19.1102753  79.7001313  61.1076993  18.6872753  80.2931313
  60.3246993  18.6952753  80.2461313  70.4306993  16.0362753  90.3581313
  70.2726993  16.8052753  89.9761313  69.6586993  15.8162753  90.7021313
  70.2926993  16.1172753  90.3531313  63.2196993  17.7512753  82.5731313
  63.2926993  18.6112753  82.7021313  63.1816993  17.6762753  81.7051313
  63.2246993  17.8672753  82.4641313  67.8926993  20.6772753  74.8721313
  67.4426993  21.3582753  75.1791313  68.0066993  20.1732753  75.5751313
  67.8436993  20.7032753  75.0211313  56.0986993  23.1762753  84.0741313
  55.8426993  24.0072753  83.9991313  55.4346993  22.7932753  84.4911313
  55.9626993  23.2422753  84.1251313  56.0086993  32.8862753  81.9741313
  55.4166993  33.4442753  81.6611313  56.4346993  32.6172753  81.2621313
  55.9846993  32.9282753  81.8231313  61.8486993  30.7302753  79.4541313
  61.2696993  30.4552753  80.0461313  62.4726993  30.1212753  79.4791313
  61.8556993  30.6002753  79.5451313  67.9916993  33.0182753  76.9761313
  68.7186993  33.4902753  77.0781313  68.2206993  32.2242753  77.2561313
  68.1336993  32.9712753  77.0331313  66.1596993  33.4102753  78.9661313
  66.3736993  33.9372753  79.6281313  66.9266993  33.2362753  78.5871313
  66.3046993  33.4622753  79.0081313  59.1276993  17.9932753  84.5651313
  58.6066993  17.3652753  84.2571313  59.7186993  17.5562753  85.0361313
  59.1386993  17.8352753  84.5891313  57.5536993  31.5562753  79.9051313
  58.2096993  30.9812753  79.9201313  57.9426993  32.3052753  79.6841313
  57.7086993  31.5812753  79.8751313  68.5986993  33.4202753  87.2711313
  69.3426993  33.8762753  87.2611313  68.4776993  33.2062753  86.4341313
  68.6906993  33.4562753  87.1461313  58.3716993  30.0432753  83.4051313
  58.7946993  29.6872753  82.7311313  58.6956993  29.6212753  84.0971313
  58.4816993  29.9282753  83.4081313  61.6026993  32.8952753  82.7011313
  62.4466993  32.9992753  82.5061313  61.3056993  33.7132753  82.7691313
  61.6836993  33.0312753  82.6821313  65.4096993  22.2922753  80.7881313
  65.6966993  22.0602753  79.9981313  66.1416993  22.3712753  81.2571313
  65.5596993  22.2692753  80.7411313  66.1316993  22.6312753  75.9091313
  66.4126993  23.4192753  76.1581313  65.3556993  22.7962753  75.5461313
  66.0586993  22.7722753  75.8921313  70.1726993  34.6052753  77.3761313
  70.8376993  34.4572753  76.8311313  70.5326993  34.5222753  78.1661313
  70.3246993  34.5712753  77.4121313  60.6006993  34.1142753  88.4411313
  60.8926993  34.0472753  89.2611313  59.9746993  33.5092753  88.3961313
  60.5516993  34.0152753  88.5561313  55.5146993  20.2712753  90.4331313
  55.5106993  20.8582753  91.0791313  56.1086993  20.5832753  89.8761313
  55.6016993  20.4042753  90.4461313  64.9906993  30.8022753  75.7251313
  64.8096993  31.3472753  76.3821313  65.7566993  31.0922753  75.4241313
  65.0766993  30.9262753  75.7781313  68.4976993  18.6982753  76.7791313
  69.0376993  18.0162753  76.8551313  68.5596993  19.0962753  77.5531313
  68.5866993  18.6562753  76.9051313  56.4516993  19.8662753  79.3481313
  56.3376993  19.0022753  79.3791313  55.9766993  20.1602753  80.0181313
  56.3646993  19.7822753  79.4511313  58.5936993  32.2762753  87.5631313
  57.8956993  31.7682753  87.6891313  58.8536993  32.0712753  86.7551313
  58.5286993  32.1712753  87.4621313  65.7556993  21.0742753  78.0931313
  65.2476993  20.4122753  77.8391313  65.8076993  21.5782753  77.3831313
  65.6886993  21.0512753  77.9511313  66.3046993  33.7692753  88.4731313
  67.0726993  33.6892753  88.0671313  65.7216993  33.6482753  87.8351313
  66.3316993  33.7392753  88.3191313  65.7556993  18.0152753  77.9841313
  65.3006993  17.6132753  77.3581313  66.5286993  18.1702753  77.6091313
  65.8026993  17.9792753  77.8361313  64.3536993  20.3822753  82.5061313
  64.4276993  20.9502753  81.8481313  64.4746993  20.8742753  83.2161313
  64.3816993  20.5392753  82.5141313  69.5786993  30.2172753  80.9181313
  70.2796993  29.7352753  81.1071313  68.9186993  29.6482753  80.9631313
  69.5846993  30.0622753  80.9521313  59.9546993  31.1272753  90.1301313
  60.7956993  31.1902753  89.9081313  59.9176993  31.5242753  90.9061313
  60.0736993  31.1952753  90.2121313  58.9616993  16.2052753  80.8541313
  59.4976993  16.8932753  80.8441313  58.9646993  15.9312753  80.0261313
  59.0406993  16.2662753  80.7301313  61.9176993  26.6382753  84.8791313
  62.0896993  26.4282753  85.7081313  61.2626993  26.1042753  84.6631313
  61.8466993  26.5282753  84.9701313  68.1456993  20.5522753  88.3941313
  68.0506993  20.8712753  89.2001313  67.5526993  19.9132753  88.3561313
  68.0436993  20.5042753  88.5081313  62.6676993  26.5762753  87.4691313
  62.7206993  27.4232753  87.6711313  62.3826993  26.2062753  88.2061313
  62.6336993  26.6462753  87.6071313  68.8446993  27.2712753  86.5991313
  68.3306993  26.8592753  87.1701313  68.7186993  28.1152753  86.7801313
  68.7506993  27.3352753  86.7101313  69.4016993  16.4962753  81.2301313
  69.4506993  16.1782753  82.0411313  69.7246993  15.8522753  80.7371313
  69.4566993  16.3542753  81.2771313  59.4096993  20.0152753  82.5081313
  59.6816993  19.5852753  81.8001313  59.2336993  19.3792753  83.0791313
  59.4236993  19.8582753  82.4881313  59.2336993  27.4422753  82.0571313
  60.0846993  27.3622753  81.8841313  58.8766993  26.7602753  81.6451313
  59.3066993  27.3292753  81.9701313  58.0006993  34.1672753  83.2941313
  57.3276993  33.6692753  83.0491313  58.4036993  34.3522753  82.5431313
  57.9606993  34.1212753  83.1471313  57.5506993  21.1172753  85.5901313
  58.3936993  21.3372753  85.5471313  57.1616993  21.6902753  85.0591313
  57.6176993  21.2342753  85.5051313  69.9926993  24.2472753  76.3111313
  69.7726993  24.9782753  75.8891313  69.5446993  24.2982753  77.0581313
  69.8936993  24.3622753  76.3591313  61.6016993  27.4492753  80.2921313
  62.3146993  27.9442753  80.3821313  61.8236993  26.8822753  79.6661313
  61.7396993  27.4382753  80.2131313  55.7576993  29.0922753  83.6121313
  55.0906993  29.5802753  83.8881313  56.4376993  29.6372753  83.6411313
  55.7596993  29.2442753  83.6571313  55.8236993  25.7762753  78.7151313
  55.6386993  24.9372753  78.8671313  56.4826993  25.7402753  78.1451313
  55.8936993  25.6472753  78.6531313  66.1246993  31.1522753  82.6191313
  65.6016993  31.7862753  82.3261313  66.4346993  30.7882753  81.8901313
  66.0926993  31.1922753  82.4681313  55.9956993  29.9402753  78.2901313
  56.5476993  30.5092753  78.6541313  55.7636993  29.4252753  78.9551313
  56.0426993  29.9482753  78.4421313  60.1996993  28.9402753  85.3791313
  60.6666993  29.2292753  86.0571313  60.7716993  28.4622753  84.9251313
  60.3536993  28.9122753  85.4121313  68.6356993  20.9542753  83.1161313
  68.9796993  21.1062753  83.9031313  68.1826993  20.2162753  83.2291313
  68.6196993  20.8672753  83.2491313  56.7656993  26.6102753  83.9231313
  57.1966993  26.4812753  83.1761313  56.5606993  27.4582753  83.8971313
  56.7986993  26.7162753  83.8091313  63.1116993  20.1742753  77.5731313
  63.1096993  20.0572753  76.7081313  62.9306993  21.0222753  77.6651313
  63.0846993  20.2822753  77.4591313  60.8496993  30.1262753  82.2051313
  60.9756993  30.9692753  82.3921313  61.5176993  29.7272753  82.6011313
  60.9676993  30.1922753  82.2911313  59.4646993  23.0062753  77.2071313
  59.3366993  22.5582753  77.9451313  58.8826993  22.6642753  76.6551313
  59.3596993  22.8892753  77.2351313  59.6316993  24.8362753  83.8061313
  58.8506993  24.7772753  83.4231313  59.7036993  24.0842753  84.2431313
  59.5266993  24.7172753  83.8141313  60.0616993  24.5732753  87.2741313
  60.0866993  23.8982753  86.7231313  59.4156993  25.0692753  86.9621313
  59.9706993  24.5462753  87.1471313  69.9566993  22.2862753  85.6701313
  69.2946993  22.6142753  86.1331313  70.1436993  22.9202753  85.1011313
  69.8866993  22.4282753  85.6541313  64.1616993  33.3502753  86.6661313
  63.8846993  32.7092753  86.1431313  63.9536993  34.0762753  86.2281313
  64.0906993  33.3632753  86.5241313  66.6016993  18.1922753  89.0991313
  66.7506993  17.3672753  88.8561313  66.9806993  18.2472753  89.8831313
  66.6796993  18.0782753  89.1791313  68.1496993  20.2552753  79.1811313
  68.6396993  20.9722753  79.1041313  67.3596993  20.5162753  78.9181313
  68.1056993  20.3992753  79.1311313  69.4636993  28.1332753  91.0911313
  69.9476993  28.8512753  91.1891313  69.8576993  27.7062753  90.4401313
  69.5936993  28.1762753  91.0091313  64.7316993  21.7252753  84.9061313
  65.2116993  22.4242753  85.1141313  65.1046993  21.0782753  85.3571313
  64.8576993  21.7332753  85.0031313  66.9206993  24.8942753  77.1801313
  66.9126993  25.6162753  76.6901313  66.2816993  25.0292753  77.7571313
  66.8256993  25.0212753  77.1931313  67.9376993  31.8302753  85.0051313
  67.3346993  31.5342753  84.4481313  68.4826993  32.2822753  84.4961313
  67.9286993  31.8532753  84.8471313  67.9506993  28.6812753  84.4051313
  67.1536993  28.9052753  84.6791313  68.2086993  28.0872753  84.9901313
  67.8706993  28.6262753  84.5321313  61.8426993  33.4932753  78.8531313
  61.6956993  32.7172753  79.2241313  62.5316993  33.3462753  78.3381313
  61.9226993  33.3562753  78.8321313  61.5136993  17.2362753  76.8411313
  61.6106993  17.1292753  77.7021313  60.8056993  17.7422753  76.7761313
  61.4236993  17.2952753  76.9591313  64.1346993  33.0092753  77.2551313
  64.7566993  33.1722753  77.8451313  64.1706993  33.7002753  76.7231313
  64.2316993  33.1352753  77.2641313  58.6356993  25.5432753  78.0841313
  58.9596993  24.7642753  77.8621313  59.2816993  25.9112753  78.5391313
  58.7786993  25.4822753  78.1181313  66.9416993  26.4852753  88.8511313
  66.7866993  27.0952753  89.4551313  67.4756993  25.9272753  89.2571313
  66.9976993  26.4932753  89.0001313  55.6326993  17.2042753  79.0521313
  55.7616993  16.4962753  78.5601313  55.2656993  16.8862753  79.7771313
  55.5976993  17.0522753  79.0871313  65.3256993  24.8852753  79.5091313
  65.3846993  25.5352753  80.0881313  65.1366993  24.1892753  80.0001313
  65.3066993  24.8782753  79.6671313  70.5516993  29.2142753  85.3781313
  70.0726993  29.5122753  84.7121313  70.1956993  28.4382753  85.5561313
  70.4286993  29.1432753  85.3061313  59.8216993  19.4022753  76.0211313
  59.3106993  19.4552753  75.3151313  60.6056993  19.6422753  75.7251313
  59.8616993  19.4452753  75.8731313  64.5486993  26.9322753  83.9401313
  63.7016993  26.7382753  84.0211313  64.8726993  26.7672753  84.7331313
  64.4706993  26.8792753  84.0691313  61.3006993  33.6622753  74.8261313
  61.7396993  32.9652753  75.1141313  61.5076993  34.2862753  75.3991313
  61.3966993  33.6512753  74.9531313  58.3966993  26.6252753  86.2561313
  59.1186993  27.1132753  86.2191313  58.1266993  26.5952753  85.4271313
  58.4636993  26.6932753  86.1281313  61.6266993  21.7962753  82.9911313
  62.4726993  21.6062753  83.0891313  61.2566993  21.0192753  82.8531313
  61.6966993  21.6532753  82.9851313  56.4476993  23.1342753  79.6461313
  56.9366993  22.8422753  80.3071313  56.5766993  22.5412753  79.0191313
  56.5386993  23.0032753  79.6511313  60.9726993  24.5682753  75.1321313
  60.3626993  24.1632753  75.6061313  60.5866993  24.6862753  74.3591313
  60.8256993  24.5252753  75.0881313  57.7916993  27.6772753  90.5341313
  57.3706993  27.1592753  89.9731313  57.4396993  28.4632753  90.3911313
  57.6776993  27.7172753  90.4301313  62.4276993  23.0292753  77.8421313
  62.6996993  23.8552753  77.9091313  61.5646993  23.1042753  77.7461313
  62.3406993  23.1622753  77.8371313  55.9076993  18.9992753  84.3781313
  55.9516993  19.3432753  83.5771313  56.6626993  19.2362753  84.7451313
  56.0256993  19.0852753  84.3141313  70.4746993  30.4632753  76.4451313
  70.8086993  29.6572753  76.4801313  69.7196993  30.3912753  76.8751313
  70.4126993  30.3332753  76.5141313  70.9566993  22.2972753  82.1041313
  70.2116993  21.9742753  82.4221313  70.9586993  23.1232753  82.3841313
  70.8466993  22.3712753  82.1921313  67.8486993  28.3382753  75.8481313
  68.5326993  27.8242753  75.6791313  67.4316993  28.3842753  75.0831313
  67.8876993  28.2692753  75.7101313  62.5306993  29.4882753  87.1521313
  62.2326993  30.0802753  87.7191313  62.5856993  29.9302753  86.4031313
  62.4946993  29.6412753  87.1251313  60.5096993  28.4382753  90.5501313
  59.7036993  28.1482753  90.7171313  60.4206993  29.3062753  90.5561313
  60.3776993  28.5232753  90.5751313  69.8686993  18.6272753  89.5651313
  70.6126993  19.0792753  89.5021313  69.3026993  19.0972753  89.0961313
  69.8956993  18.7642753  89.4871313  65.0466993  25.9112753  86.6431313
  65.5226993  26.2852753  87.2711313  64.2236993  26.0452753  86.9021313
  64.9956993  25.9862753  86.7741313  61.7566993  21.5142753  89.3841313
  61.9176993  20.7702753  89.8111313  61.7116993  21.2652753  88.5491313
  61.7736993  21.3672753  89.3241313  64.3106993  33.3042753  81.8711313
  64.8566993  33.9832753  81.9251313  63.9606993  33.3862753  81.0761313
  64.3396993  33.4172753  81.7611313  63.5086993  17.3222753  89.2641313
  64.2136993  17.6422753  88.8621313  63.7496993  16.5152753  89.4911313
  63.6476993  17.2502753  89.2381313  62.4936993  31.5322753  85.2601313
  61.8696993  32.1142753  85.0781313  62.7416993  31.2462753  84.4741313
  62.4376993  31.5762753  85.1171313  64.0876993  26.3082753  75.1751313
  63.2826993  26.1312753  74.8901313  64.0546993  27.1592753  75.3671313
  63.9636993  26.4072753  75.1621313  60.0176993  22.3752753  85.3251313
  60.4576993  22.2722753  84.5791313  60.5626993  22.0622753  85.9301313
  60.1626993  22.3142753  85.3041313  67.7216993  23.0142753  87.2151313
  68.0236993  23.4342753  87.9181313  67.7576993  22.1742753  87.4471313
  67.7716993  22.9522753  87.3531313  70.2696993  22.4612753  79.4671313
  70.4766993  22.2602753  80.2911313  71.0256993  22.7292753  79.1251313
  70.4116993  22.4712753  79.5381313  63.5646993  17.3602753  85.3721313
  62.7386993  17.2112753  85.6091313  63.5246993  17.3952753  84.5011313
  63.4366993  17.3432753  85.2781313  65.2056993  28.4002753  90.1601313
  64.4106993  28.3362753  90.5111313  65.2766993  29.2472753  89.9651313
  65.0986993  28.5152753  90.1831313  61.0356993  34.6072753  85.4771313
  61.0466993  34.6662753  86.3471313  60.6106993  33.8602753  85.3271313
  60.9746993  34.5052753  85.5831313  59.1936993  20.5022753  78.6321313
  59.3196993  20.1732753  77.8341313  58.3816993  20.2532753  78.8311313
  59.0926993  20.4172753  78.5441313  67.9506993  27.6552753  81.6761313
  68.0266993  27.9962753  82.4751313  68.1196993  26.8082753  81.7971313
  67.9866993  27.5802753  81.8121313  65.4726993  26.9292753  81.2411313
  65.1746993  26.6142753  81.9981313  66.1676993  27.4022753  81.4761313
  65.5316993  26.9522753  81.3881313  65.6946993  31.0472753  89.2681313
  66.3816993  30.9332753  89.7931313  65.8286993  31.8382753  88.9241313
  65.8156993  31.1472753  89.2951313  68.3836993  24.3212753  89.6551313
  68.1286993  23.6022753  90.0771313  69.2046993  24.4372753  89.9251313
  68.4676993  24.2322753  89.7571313  57.7996993  34.1052753  90.9191313
  57.1456993  33.5362753  91.0171313  57.4246993  34.8782753  91.0701313
  57.6476993  34.1352753  90.9561313  69.4016993  33.8852753  83.7711313
  68.9506993  34.5282753  84.1501313  70.1096993  33.8062753  84.2761313
  69.4396993  33.9682753  83.9021313  66.1026993  28.9752753  86.7011313
  65.4086993  29.3772753  87.0441313  66.7796993  29.4082753  87.0401313
  66.0996993  29.0982753  86.8021313  59.1706993  22.5132753  89.0481313
  59.5456993  23.1322753  88.5611313  59.8446993  22.0392753  89.3331313
  59.3256993  22.5352753  89.0181313  56.9456993  20.9612753  88.3231313
  57.0226993  20.7922753  87.4701313  57.6916993  21.3672753  88.5201313
  57.0666993  20.9962753  88.2261313  59.4996993  18.3712753  90.7341313
  59.4186993  17.5272753  90.9401313  59.1856993  18.4152753  89.9211313
  59.4416993  18.2532753  90.6441313  66.4246993  30.5662753  79.8701313
  66.2196993  31.3992753  79.7111313  65.6496993  30.1842753  79.9921313
  66.2796993  30.6332753  79.8651313  56.3426993  26.1872753  88.5471313
  56.6626993  26.4062753  87.7661313  56.2426993  25.3222753  88.4921313
  56.3746993  26.0922753  88.4241313  57.7986993  22.1232753  75.1651313
  57.1266993  22.1372753  75.7211313  57.8936993  21.2752753  74.9811313
  57.7136993  22.0002753  75.2201313  66.4796993  18.7372753  82.7551313
  65.7796993  19.2552753  82.6991313  66.5176993  18.3572753  81.9711313
  66.3816993  18.7582753  82.6311313  61.7866993  30.8282753  76.2791313
  62.2276993  30.9082753  77.0271313  60.9816993  30.6122753  76.5371313
  61.7326993  30.8082753  76.4281313  70.0776993  19.2532753  85.5551313
  70.9326993  19.3522753  85.7001313  69.7086993  19.8062753  86.1201313
  70.1496993  19.3502753  85.6601313  61.1056993  25.4792753  89.9321313
  60.7096993  26.2532753  90.0071313  60.6996993  25.1062753  89.2561313
  60.9876993  25.5382753  89.8431313  70.3816993  24.5332753  84.0461313
  71.0476993  25.0742753  84.2061313  70.0366993  24.8442753  83.3071313
  70.4286993  24.6592753  83.9611313  59.1156993  29.8982753  76.8801313
  58.8716993  29.5912753  77.6601313  59.0826993  29.1952753  76.3641313
  59.0746993  29.7492753  76.9191313  61.9346993  28.1432753  75.6231313
  61.1166993  27.8752753  75.7631313  61.9066993  28.9952753  75.8081313
  61.8096993  28.2302753  75.6711313  61.5346993  18.4562753  87.3821313
  60.6706993  18.5402753  87.4621313  61.7546993  17.9422753  88.0511313
  61.4396993  18.3932753  87.4931313  65.6376993  19.2042753  85.7561313
  64.9006993  18.7502753  85.8691313  66.2086993  18.8022753  86.2791313
  65.6126993  19.0772753  85.8501313  68.3696993  30.0522753  87.5441313
  68.5756993  30.3532753  88.3361313  68.3086993  30.7742753  87.0591313
  68.3906993  30.2032753  87.5891313  63.1406993  23.5332753  90.9601313
  62.8186993  22.9572753  90.3901313  62.7816993  24.2882753  90.7141313
  63.0406993  23.5592753  90.8401313  63.9366993  16.7852753  75.5871313
  64.0146993  17.0322753  74.7541313  63.1936993  17.1622753  75.8451313
  63.8386993  16.8772753  75.5021313  58.7546993  18.5392753  88.0301313
  58.4116993  17.7722753  87.7961313  58.0596993  19.0632753  88.0941313
  58.6016993  18.5032753  88.0051313  67.8006993  17.3952753  85.0071313
  68.4706993  17.9392753  85.1341313  67.2976993  17.8192753  84.4341313
  67.8256993  17.5382753  84.9411313  67.1596993  23.2032753  82.5001313
  67.7106993  22.5962753  82.8001313  66.7346993  23.4662753  83.2151313
  67.1786993  23.1522753  82.6491313  57.4076993  21.8532753  81.9861313
  57.0396993  22.1552753  82.7171313  57.9416993  21.2242753  82.2701313
  57.4316993  21.8052753  82.1361313  57.0956993  30.2612753  89.4971313
  56.5216993  30.6772753  90.0061313  57.8286993  30.7262753  89.5921313
  57.1196993  30.3912753  89.5861313  69.1296993  25.0342753  79.0621313
  69.1976993  24.1842753  79.2431313  68.3066993  25.1202753  78.7841313
  69.0176993  24.9212753  79.0481313  58.8816993  33.5282753  78.2721313
  58.7366993  33.6842753  77.4261313  59.7476993  33.6072753  78.3501313
  58.9886993  33.5632753  78.1591313  63.0486993  25.9252753  78.0001313
  63.1486993  26.0642753  77.1451313  63.8666993  25.8652753  78.2961313
  63.1836993  25.9362753  77.9171313  68.2836993  30.2542753  77.8021313
  68.0326993  30.1262753  78.6281313  67.9666993  29.5592753  77.3811313
  68.1996993  30.1332753  77.8621313  62.1876993  18.9002753  91.1161313
  62.4216993  18.3242753  90.5031313  61.3456993  18.7192753  91.2571313
  62.0976993  18.7882753  91.0461313  59.5686993  32.3432753  84.7491313
  59.4896993  31.5332753  84.4331313  59.1246993  32.8302753  84.1771313
  59.4916993  32.2952753  84.6181313  65.1696993  28.4622753  77.2321313
  65.8866993  28.1152753  76.8761313  65.1356993  29.2622753  76.8841313
  65.2706993  28.5292753  77.1281313  57.1406993  34.5872753  88.3301313
  57.6336993  34.5312753  89.0481313  57.3286993  33.8542753  87.8951313
  57.2416993  34.4702753  88.3721313  66.5786993  17.1032753  61.4708903
  66.3336993  17.5912753  60.7908903  67.4416993  17.0302753  61.3708903
  66.6696993  17.1642753  61.3558903  66.3876993  24.0192753  66.1418903
  65.8636993  24.6152753  66.5048903  66.7846993  23.6512753  66.8258903
  66.3686993  24.0532753  66.2968903  56.2566993  28.1592753  61.5978903
  55.8156993  28.2772753  62.3408903  55.9736993  27.3842753  61.3128903
  56.1496993  28.0622753  61.6658903  55.9996993  21.9512753  58.1048903
  55.2216993  22.1132753  57.7448903  56.0386993  21.0802753  58.1268903
  55.8906993  21.8462753  58.0548903  59.1386993  27.2142753  56.7768903
  58.7466993  26.8432753  56.0908903  59.0586993  26.6162753  57.4058903
  59.0686993  27.0712753  56.7678903  69.0586993  25.0862753  62.8178903
  69.1386993  25.0902753  61.9488903  68.4746993  24.4542753  62.9668903
  68.9836993  24.9932753  62.7118903  58.7656993  28.8552753  60.6768903
  59.3736993  28.6852753  61.2798903  58.0146993  28.7152753  61.0978903
  58.7446993  28.8092753  60.8278903  63.0476993  18.1902753  60.6258903
  62.9776993  18.8672753  60.0798903  63.7886993  17.8022753  60.3768903
  63.1466993  18.2332753  60.5078903  57.6566993  31.9462753  56.7538903
  58.1236993  32.0302753  56.0218903  58.1116993  31.3682753  57.2228903
  57.7926993  31.8732753  56.7148903  56.1966993  30.8942753  67.8528903
  56.3256993  30.6142753  68.6688903  55.5866993  30.3532753  67.5438903
  56.1256993  30.7732753  67.9278903  62.7706993  28.4192753  72.9198903
  62.5346993  28.4162753  73.7598903  62.0226993  28.2712753  72.4958903
  62.6246993  28.3962753  72.9808903  57.6426993  25.4152753  62.0548903
  57.1806993  25.0232753  61.4278903  58.3426993  24.9022753  62.1468903
  57.6776993  25.2822753  61.9758903  62.1506993  21.0252753  67.4018903
  62.8286993  21.0432753  66.8528903  62.1056993  20.1892753  67.6468903
  62.2436993  20.9042753  67.3568903  62.7526993  31.6112753  70.1828903
  62.8906993  32.3712753  69.7758903  63.5436993  31.2462753  70.2098903
  62.8896993  31.6702753  70.1268903  59.6436993  23.5152753  62.0778903
  60.4606993  23.3282753  62.3208903  59.1666993  22.9012753  62.4738903
  59.6936993  23.3972753  62.1728903  63.8476993  29.4962753  64.6878903
  64.1956993  28.6972753  64.7178903  64.5126993  30.0002753  64.4328903
  63.9976993  29.4522753  64.6548903  63.9046993  28.9452753  60.8988903
  64.2356993  28.3012753  61.3848903  64.1446993  28.7342753  60.0878903
  63.9886993  28.8192753  60.8508903  65.8726993  23.0762753  72.2378903
  65.0246993  22.9772753  72.0598903  65.9016993  23.8212753  72.6918903
  65.7516993  23.1722753  72.2788903  60.2406993  18.6092753  61.3438903
  59.9446993  19.1102753  60.6938903  61.1076993  18.6872753  61.2868903
  60.3246993  18.6952753  61.2398903  70.4306993  16.0362753  71.3518903
  70.2726993  16.8052753  70.9698903  69.6586993  15.8162753  71.6958903
  70.2926993  16.1172753  71.3468903  63.2196993  17.7512753  63.5668903
  63.2926993  18.6112753  63.6958903  63.1816993  17.6762753  62.6988903
  63.2246993  17.8672753  63.4578903  67.8926993  20.6772753  55.8658903
  67.4426993  21.3582753  56.1728903  68.0066993  20.1732753  56.5688903
  67.8436993  20.7032753  56.0148903  56.0986993  23.1762753  65.0678903
  55.8426993  24.0072753  64.9928903  55.4346993  22.7932753  65.4848903
  55.9626993  23.2422753  65.1188903  56.0086993  32.8862753  62.9678903
  55.4166993  33.4442753  62.6548903  56.4346993  32.6172753  62.2558903
  55.9846993  32.9282753  62.8168903  61.8486993  30.7302753  60.4478903
  61.2696993  30.4552753  61.0398903  62.4726993  30.1212753  60.4728903
  61.8556993  30.6002753  60.5388903  67.9916993  33.0182753  57.9698903
  68.7186993  33.4902753  58.0718903  68.2206993  32.2242753  58.2498903
  68.1336993  32.9712753  58.0268903  66.1596993  33.4102753  59.9598903
  66.3736993  33.9372753  60.6218903  66.9266993  33.2362753  59.5808903
  66.3046993  33.4622753  60.0018903  59.1276993  17.9932753  65.5588903
  58.6066993  17.3652753  65.2508903  59.7186993  17.5562753  66.0298903
  59.1386993  17.8352753  65.5828903  62.4336993  20.1262753  74.8568903
  62.5506993  19.6722753  74.1208903  62.7216993  20.9242753  74.6538903
  62.4936993  20.1772753  74.7178903  57.5536993  31.5562753  60.8988903
  58.2096993  30.9812753  60.9138903  57.9426993  32.3052753  60.6778903
  57.7086993  31.5812753  60.8688903  68.5986993  33.4202753  68.2648903
  69.3426993  33.8762753  68.2548903  68.4776993  33.2062753  67.4278903
  68.6906993  33.4562753  68.1398903  58.1666993  19.7232753  73.8408903
  57.3886993  19.3332753  73.7688903  58.6576993  19.3112753  73.2498903
  58.1236993  19.6042753  73.7428903  58.3716993  30.0432753  64.3988903
  58.7946993  29.6872753  63.7248903  58.6956993  29.6212753  65.0908903
  58.4816993  29.9282753  64.4018903  61.6026993  32.8952753  63.6948903
  62.4466993  32.9992753  63.4998903  61.3056993  33.7132753  63.7628903
  61.6836993  33.0312753  63.6758903  64.8156993  17.3662753  73.0088903
  64.9936993  16.5572753  72.7338903  64.6726993  17.8072753  72.2698903
  64.8206993  17.3122753  72.8588903  65.4096993  22.2922753  61.7818903
  65.6966993  22.0602753  60.9918903  66.1416993  22.3712753  62.2508903
  65.5596993  22.2692753  61.7348903  66.1316993  22.6312753  56.9028903
  66.4126993  23.4192753  57.1518903  65.3556993  22.7962753  56.5398903
  66.0586993  22.7722753  56.8858903  70.1726993  34.6052753  58.3698903
  70.8376993  34.4572753  57.8248903  70.5326993  34.5222753  59.1598903
  70.3246993  34.5712753  58.4058903  60.6006993  34.1142753  69.4348903
  60.8926993  34.0472753  70.2548903  59.9746993  33.5092753  69.3898903
  60.5516993  34.0152753  69.5498903  55.5146993  20.2712753  71.4268903
  55.5106993  20.8582753  72.0728903  56.1086993  20.5832753  70.8698903
  55.6016993  20.4042753  71.4398903  67.8526993  30.6052753  71.9688903
  67.8186993  30.9872753  72.7528903  68.7066993  30.5632753  71.7978903
  67.9736993  30.6552753  72.0598903  64.9906993  30.8022753  56.7188903
  64.8096993  31.3472753  57.3758903  65.7566993  31.0922753  56.4178903
  65.0766993  30.9262753  56.7718903  68.4976993  18.6982753  57.7728903
  69.0376993  18.0162753  57.8488903  68.5596993  19.0962753  58.5468903
  68.5866993  18.6562753  57.8988903  56.4516993  19.8662753  60.3418903
  56.3376993  19.0022753  60.3728903  55.9766993  20.1602753  61.0118903
  56.3646993  19.7822753  60.4448903  58.5936993  32.2762753  68.5568903
  57.8956993  31.7682753  68.6828903  58.8536993  32.0712753  67.7488903
  58.5286993  32.1712753  68.4558903  65.7556993  21.0742753  59.0868903
  65.2476993  20.4122753  58.8328903  65.8076993  21.5782753  58.3768903
  65.6886993  21.0512753  58.9448903  66.3046993  33.7692753  69.4668903
  67.0726993  33.6892753  69.0608903  65.7216993  33.6482753  68.8288903
  66.3316993  33.7392753  69.3128903  65.7556993  18.0152753  58.9778903
  65.3006993  17.6132753  58.3518903  66.5286993  18.1702753  58.6028903
  65.8026993  17.9792753  58.8298903  64.3536993  20.3822753  63.4998903
  64.4276993  20.9502753  62.8418903  64.4746993  20.8742753  64.2098903
  64.3816993  20.5392753  63.5078903  69.5786993  30.2172753  61.9118903
  70.2796993  29.7352753  62.1008903  68.9186993  29.6482753  61.9568903
  69.5846993  30.0622753  61.9458903  59.9546993  31.1272753  71.1238903
  60.7956993  31.1902753  70.9018903  59.9176993  31.5242753  71.8998903
  60.0736993  31.1952753  71.2058903  58.9616993  16.2052753  61.8478903
  59.4976993  16.8932753  61.8378903  58.9646993  15.9312753  61.0198903
  59.0406993  16.2662753  61.7238903  61.9176993  26.6382753  65.8728903
  62.0896993  26.4282753  66.7018903  61.2626993  26.1042753  65.6568903
  61.8466993  26.5282753  65.9638903  68.1456993  20.5522753  69.3878903
  68.0506993  20.8712753  70.1938903  67.5526993  19.9132753  69.3498903
  68.0436993  20.5042753  69.5018903  62.6676993  26.5762753  68.4628903
  62.7206993  27.4232753  68.6648903  62.3826993  26.2062753  69.1998903
  62.6336993  26.6462753  68.6008903  68.8446993  27.2712753  67.5928903
  68.3306993  26.8592753  68.1638903  68.7186993  28.1152753  67.7738903
  68.7506993  27.3352753  67.7038903  69.4016993  16.4962753  62.2238903
  69.4506993  16.1782753  63.0348903  69.7246993  15.8522753  61.7308903
  69.4566993  16.3542753  62.2708903  55.4886993  30.9472753  74.6738903
  56.2446993  31.2962753  74.9318903  55.6656993  30.0942753  74.6168903
  55.6266993  30.8722753  74.7038903  59.4096993  20.0152753  63.5018903
  59.6816993  19.5852753  62.7938903  59.2336993  19.3792753  64.0728903
  59.4236993  19.8582753  63.4818903  59.2336993  27.4422753  63.0508903
  60.0846993  27.3622753  62.8778903  58.8766993  26.7602753  62.6388903
  59.3066993  27.3292753  62.9638903  58.0006993  34.1672753  64.2878903
  57.3276993  33.6692753  64.0428903  58.4036993  34.3522753  63.5368903
  57.9606993  34.1212753  64.1408903  57.5506993  21.1172753  66.5838903
  58.3936993  21.3372753  66.5408903  57.1616993  21.6902753  66.0528903
  57.6176993  21.2342753  66.4988903  69.9926993  24.2472753  57.3048903
  69.7726993  24.9782753  56.8828903  69.5446993  24.2982753  58.0518903
  69.8936993  24.3622753  57.3528903  61.6016993  27.4492753  61.2858903
  62.3146993  27.9442753  61.3758903  61.8236993  26.8822753  60.6598903
  61.7396993  27.4382753  61.2068903  55.7576993  29.0922753  64.6058903
  55.0906993  29.5802753  64.8818903  56.4376993  29.6372753  64.6348903
  55.7596993  29.2442753  64.6508903  63.4046993  22.8022753  74.7018903
  62.9206993  23.3792753  75.1438903  63.3766993  23.0972753  73.8808903
  63.3286993  22.9312753  74.6458903  55.8236993  25.7762753  59.7088903
  55.6386993  24.9372753  59.8608903  56.4826993  25.7402753  59.1388903
  55.8936993  25.6472753  59.6468903  66.1246993  31.1522753  63.6128903
  65.6016993  31.7862753  63.3198903  66.4346993  30.7882753  62.8838903
  66.0926993  31.1922753  63.4618903  55.9956993  29.9402753  59.2838903
  56.5476993  30.5092753  59.6478903  55.7636993  29.4252753  59.9488903
  56.0426993  29.9482753  59.4358903  60.1996993  28.9402753  66.3728903
  60.6666993  29.2292753  67.0508903  60.7716993  28.4622753  65.9188903
  60.3536993  28.9122753  66.4058903  68.6356993  20.9542753  64.1098903
  68.9796993  21.1062753  64.8968903  68.1826993  20.2162753  64.2228903
  68.6196993  20.8672753  64.2428903  55.8256993  28.3892753  56.9118903
  56.5816993  27.9572753  56.9698903  55.8406993  28.9212753  57.6028903
  55.9396993  28.4042753  57.0228903  56.7656993  26.6102753  64.9168903
  57.1966993  26.4812753  64.1698903  56.5606993  27.4582753  64.8908903
  56.7986993  26.7162753  64.8028903  63.1116993  20.1742753  58.5668903
  63.1096993  20.0572753  57.7018903  62.9306993  21.0222753  58.6588903
  63.0846993  20.2822753  58.4528903  60.8496993  30.1262753  63.1988903
  60.9756993  30.9692753  63.3858903  61.5176993  29.7272753  63.5948903
  60.9676993  30.1922753  63.2848903  58.9796993  23.6092753  73.0608903
  58.4436993  23.1032753  73.5288903  58.9996993  23.2192753  72.2808903
  58.9026993  23.4762753  73.0148903  59.4646993  23.0062753  58.2008903
  59.3366993  22.5582753  58.9388903  58.8826993  22.6642753  57.6488903
  59.3596993  22.8892753  58.2288903  59.6316993  24.8362753  64.7998903
  58.8506993  24.7772753  64.4168903  59.7036993  24.0842753  65.2368903
  59.5266993  24.7172753  64.8078903  60.0616993  24.5732753  68.2678903
  60.0866993  23.8982753  67.7168903  59.4156993  25.0692753  67.9558903
  59.9706993  24.5462753  68.1408903  69.9566993  22.2862753  66.6638903
  69.2946993  22.6142753  67.1268903  70.1436993  22.9202753  66.0948903
  69.8866993  22.4282753  66.6478903  64.1616993  33.3502753  67.6598903
  63.8846993  32.7092753  67.1368903  63.9536993  34.0762753  67.2218903
  64.0906993  33.3632753  67.5178903  66.6016993  18.1922753  70.0928903
  66.7506993  17.3672753  69.8498903  66.9806993  18.2472753  70.8768903
  66.6796993  18.0782753  70.1728903  68.1496993  20.2552753  60.1748903
  68.6396993  20.9722753  60.0978903  67.3596993  20.5162753  59.9118903
  68.1056993  20.3992753  60.1248903  57.8606993  25.9282753  73.8268903
  57.8236993  26.4292753  73.1128903  58.1916993  25.1762753  73.5318903
  57.9036993  25.8902753  73.6778903  69.4636993  28.1332753  72.0848903
  69.9476993  28.8512753  72.1828903  69.8576993  27.7062753  71.4338903
  69.5936993  28.1762753  72.0028903  63.7596993  30.9782753  73.2618903
  64.1136993  30.8002753  74.0388903  63.3236993  30.2492753  73.0628903
  63.7476993  30.8442753  73.3478903  64.7316993  21.7252753  65.8998903
  65.2116993  22.4242753  66.1078903  65.1046993  21.0782753  66.3508903
  64.8576993  21.7332753  65.9968903  66.9206993  24.8942753  58.1738903
  66.9126993  25.6162753  57.6838903  66.2816993  25.0292753  58.7508903
  66.8256993  25.0212753  58.1868903  67.9376993  31.8302753  65.9988903
  67.3346993  31.5342753  65.4418903  68.4826993  32.2822753  65.4898903
  67.9286993  31.8532753  65.8408903  67.9506993  28.6812753  65.3988903
  67.1536993  28.9052753  65.6728903  68.2086993  28.0872753  65.9838903
  67.8706993  28.6262753  65.5258903  61.8426993  33.4932753  59.8468903
  61.6956993  32.7172753  60.2178903  62.5316993  33.3462753  59.3318903
  61.9226993  33.3562753  59.8258903  61.5136993  17.2362753  57.8348903
  61.6106993  17.1292753  58.6958903  60.8056993  17.7422753  57.7698903
  61.4236993  17.2952753  57.9528903  64.1346993  33.0092753  58.2488903
  64.7566993  33.1722753  58.8388903  64.1706993  33.7002753  57.7168903
  64.2316993  33.1352753  58.2578903  67.4016993  32.0282753  74.5218903
  67.5656993  32.3112753  75.3308903  67.6646993  32.6892753  74.0168903
  67.4646993  32.1682753  74.5668903  58.6356993  25.5432753  59.0778903
  58.9596993  24.7642753  58.8558903  59.2816993  25.9112753  59.5328903
  58.7786993  25.4822753  59.1118903  66.9416993  26.4852753  69.8448903
  66.7866993  27.0952753  70.4488903  67.4756993  25.9272753  70.2508903
  66.9976993  26.4932753  69.9938903  55.6326993  17.2042753  60.0458903
  55.7616993  16.4962753  59.5538903  55.2656993  16.8862753  60.7708903
  55.5976993  17.0522753  60.0808903  65.3256993  24.8852753  60.5028903
  65.3846993  25.5352753  61.0818903  65.1366993  24.1892753  60.9938903
  65.3066993  24.8782753  60.6608903  70.5516993  29.2142753  66.3718903
  70.0726993  29.5122753  65.7058903  70.1956993  28.4382753  66.5498903
  70.4286993  29.1432753  66.2998903  59.8216993  19.4022753  57.0148903
  59.3106993  19.4552753  56.3088903  60.6056993  19.6422753  56.7188903
  59.8616993  19.4452753  56.8668903  64.5486993  26.9322753  64.9338903
  63.7016993  26.7382753  65.0148903  64.8726993  26.7672753  65.7268903
  64.4706993  26.8792753  65.0628903  61.3006993  33.6622753  55.8198903
  61.7396993  32.9652753  56.1078903  61.5076993  34.2862753  56.3928903
  61.3966993  33.6512753  55.9468903  58.3966993  26.6252753  67.2498903
  59.1186993  27.1132753  67.2128903  58.1266993  26.5952753  66.4208903
  58.4636993  26.6932753  67.1218903  61.6266993  21.7962753  63.9848903
  62.4726993  21.6062753  64.0828903  61.2566993  21.0192753  63.8468903
  61.6966993  21.6532753  63.9788903  56.4476993  23.1342753  60.6398903
  56.9366993  22.8422753  61.3008903  56.5766993  22.5412753  60.0128903
  56.5386993  23.0032753  60.6448903  60.9726993  24.5682753  56.1258903
  60.3626993  24.1632753  56.5998903  60.5866993  24.6862753  55.3528903
  60.8256993  24.5252753  56.0818903  57.7916993  27.6772753  71.5278903
  57.3706993  27.1592753  70.9668903  57.4396993  28.4632753  71.3848903
  57.6776993  27.7172753  71.4238903  62.4276993  23.0292753  58.8358903
  62.6996993  23.8552753  58.9028903  61.5646993  23.1042753  58.7398903
  62.3406993  23.1622753  58.8308903  70.4006993  20.1512753  73.4678903
  69.8756993  20.6102753  73.9918903  70.0396993  19.3562753  73.4618903
  70.2696993  20.1012753  73.5438903  55.9076993  18.9992753  65.3718903
  55.9516993  19.3432753  64.5708903  56.6626993  19.2362753  65.7388903
  56.0256993  19.0852753  65.3078903  68.8926993  23.7202753  73.5438903
  68.9656993  23.8242753  74.4068903  68.2586993  24.2782753  73.3228903
  68.8096993  23.8182753  73.6388903  70.4746993  30.4632753  57.4388903
  70.8086993  29.6572753  57.4738903  69.7196993  30.3912753  57.8688903
  70.4126993  30.3332753  57.5078903  70.9566993  22.2972753  63.0978903
  70.2116993  21.9742753  63.4158903  70.9586993  23.1232753  63.3778903
  70.8466993  22.3712753  63.1858903  67.8486993  28.3382753  56.8418903
  68.5326993  27.8242753  56.6728903  67.4316993  28.3842753  56.0768903
  67.8876993  28.2692753  56.7038903  62.5306993  29.4882753  68.1458903
  62.2326993  30.0802753  68.7128903  62.5856993  29.9302753  67.3968903
  62.4946993  29.6412753  68.1188903  60.5096993  28.4382753  71.5438903
  59.7036993  28.1482753  71.7108903  60.4206993  29.3062753  71.5498903
  60.3776993  28.5232753  71.5688903  69.8686993  18.6272753  70.5588903
  70.6126993  19.0792753  70.4958903  69.3026993  19.0972753  70.0898903
  69.8956993  18.7642753  70.4808903  65.0466993  25.9112753  67.6368903
  65.5226993  26.2852753  68.2648903  64.2236993  26.0452753  67.8958903
  64.9956993  25.9862753  67.7678903  61.7566993  21.5142753  70.3778903
  61.9176993  20.7702753  70.8048903  61.7116993  21.2652753  69.5428903
  61.7736993  21.3672753  70.3178903  64.3106993  33.3042753  62.8648903
  64.8566993  33.9832753  62.9188903  63.9606993  33.3862753  62.0698903
  64.3396993  33.4172753  62.7548903  63.5086993  17.3222753  70.2578903
  64.2136993  17.6422753  69.8558903  63.7496993  16.5152753  70.4848903
  63.6476993  17.2502753  70.2318903  62.4936993  31.5322753  66.2538903
  61.8696993  32.1142753  66.0718903  62.7416993  31.2462753  65.4678903
  62.4376993  31.5762753  66.1108903  66.8026993  28.1662753  73.2428903
  67.5596993  28.4522753  72.9168903  66.2556993  28.2182753  72.5648903
  66.8336993  28.2162753  73.0938903  70.7116993  30.7162753  71.7468903
  71.0576993  30.9862753  72.5008903  71.0056993  31.2982753  71.1668903
  70.8066993  30.8422753  71.7728903  64.0876993  26.3082753  56.1688903
  63.2826993  26.1312753  55.8838903  64.0546993  27.1592753  56.3608903
  63.9636993  26.4072753  56.1558903  60.0176993  22.3752753  66.3188903
  60.4576993  22.2722753  65.5728903  60.5626993  22.0622753  66.9238903
  60.1626993  22.3142753  66.2978903  68.0336993  21.4772753  71.9108903
  67.3856993  21.9472753  72.2588903  68.5986993  21.3882753  72.5698903
  68.0216993  21.5332753  72.0598903  67.7216993  23.0142753  68.2088903
  68.0236993  23.4342753  68.9118903  67.7576993  22.1742753  68.4408903
  67.7716993  22.9522753  68.3468903  65.1466993  33.1812753  72.1338903
  65.6246993  32.5812753  71.7178903  64.7956993  32.7382753  72.7988903
  65.1656993  33.0272753  72.1708903  70.2696993  22.4612753  60.4608903
  70.4766993  22.2602753  61.2848903  71.0256993  22.7292753  60.1188903
  70.4116993  22.4712753  60.5318903  63.5646993  17.3602753  66.3658903
  62.7386993  17.2112753  66.6028903  63.5246993  17.3952753  65.4948903
  63.4366993  17.3432753  66.2718903  65.2056993  28.4002753  71.1538903
  64.4106993  28.3362753  71.5048903  65.2766993  29.2472753  70.9588903
  65.0986993  28.5152753  71.1768903  56.1296993  17.7582753  72.4008903
  55.9896993  18.5532753  72.0698903  55.3436993  17.5152753  72.6898903
  55.9926993  17.8402753  72.3948903  61.0356993  34.6072753  66.4708903
  61.0466993  34.6662753  67.3408903  60.6106993  33.8602753  66.3208903
  60.9746993  34.5052753  66.5768903  59.1936993  20.5022753  59.6258903
  59.3196993  20.1732753  58.8278903  58.3816993  20.2532753  59.8248903
  59.0926993  20.4172753  59.5378903  67.9506993  27.6552753  62.6698903
  68.0266993  27.9962753  63.4688903  68.1196993  26.8082753  62.7908903
  67.9866993  27.5802753  62.8058903  65.4726993  26.9292753  62.2348903
  65.1746993  26.6142753  62.9918903  66.1676993  27.4022753  62.4698903
  65.5316993  26.9522753  62.3818903  65.6946993  31.0472753  70.2618903
  66.3816993  30.9332753  70.7868903  65.8286993  31.8382753  69.9178903
  65.8156993  31.1472753  70.2888903  68.3836993  24.3212753  70.6488903
  68.1286993  23.6022753  71.0708903  69.2046993  24.4372753  70.9188903
  68.4676993  24.2322753  70.7508903  66.3176993  25.5112753  73.8358903
  66.6406993  26.1972753  73.4038903  65.6136993  25.8342753  74.2378903
  66.2606993  25.6602753  73.8308903  69.4016993  33.8852753  64.7648903
  68.9506993  34.5282753  65.1438903  70.1096993  33.8062753  65.2698903
  69.4396993  33.9682753  64.8958903  66.1026993  28.9752753  67.6948903
  65.4086993  29.3772753  68.0378903  66.7796993  29.4082753  68.0338903
  66.0996993  29.0982753  67.7958903  59.1706993  22.5132753  70.0418903
  59.5456993  23.1322753  69.5548903  59.8446993  22.0392753  70.3268903
  59.3256993  22.5352753  70.0118903  56.9456993  20.9612753  69.3168903
  57.0226993  20.7922753  68.4638903  57.6916993  21.3672753  69.5138903
  57.0666993  20.9962753  69.2198903  59.4996993  18.3712753  71.7278903
  59.4186993  17.5272753  71.9338903  59.1856993  18.4152753  70.9148903
  59.4416993  18.2532753  71.6378903  66.4246993  30.5662753  60.8638903
  66.2196993  31.3992753  60.7048903  65.6496993  30.1842753  60.9858903
  66.2796993  30.6332753  60.8588903  56.3426993  26.1872753  69.5408903
  56.6626993  26.4062753  68.7598903  56.2426993  25.3222753  69.4858903
  56.3746993  26.0922753  69.4178903  57.7986993  22.1232753  56.1588903
  57.1266993  22.1372753  56.7148903  57.8936993  21.2752753  55.9748903
  57.7136993  22.0002753  56.2138903  67.4856993  18.5472753  72.8948903
  67.5776993  19.2592753  73.3888903  66.8486993  18.1022753  73.2918903
  67.4046993  18.5862753  73.0268903  66.4796993  18.7372753  63.7488903
  65.7796993  19.2552753  63.6928903  66.5176993  18.3572753  62.9648903
  66.3816993  18.7582753  63.6248903  61.7866993  30.8282753  57.2728903
  62.2276993  30.9082753  58.0208903  60.9816993  30.6122753  57.5308903
  61.7326993  30.8082753  57.4218903  70.0776993  19.2532753  66.5488903
  70.9326993  19.3522753  66.6938903  69.7086993  19.8062753  67.1138903
  70.1496993  19.3502753  66.6538903  61.1056993  25.4792753  70.9258903
  60.7096993  26.2532753  71.0008903  60.6996993  25.1062753  70.2498903
  60.9876993  25.5382753  70.8368903  70.3816993  24.5332753  65.0398903
  71.0476993  25.0742753  65.1998903  70.0366993  24.8442753  64.3008903
  70.4286993  24.6592753  64.9548903  59.1156993  29.8982753  57.8738903
  58.8716993  29.5912753  58.6538903  59.0826993  29.1952753  57.3578903
  59.0746993  29.7492753  57.9128903  61.9346993  28.1432753  56.6168903
  61.1166993  27.8752753  56.7568903  61.9066993  28.9952753  56.8018903
  61.8096993  28.2302753  56.6648903  61.5346993  18.4562753  68.3758903
  60.6706993  18.5402753  68.4558903  61.7546993  17.9422753  69.0448903
  61.4396993  18.3932753  68.4868903  65.6376993  19.2042753  66.7498903
  64.9006993  18.7502753  66.8628903  66.2086993  18.8022753  67.2728903
  65.6126993  19.0772753  66.8438903  68.3696993  30.0522753  68.5378903
  68.5756993  30.3532753  69.3298903  68.3086993  30.7742753  68.0528903
  68.3906993  30.2032753  68.5828903  67.9036993  34.2662753  72.7838903
  67.1506993  34.2482753  72.3428903  68.0716993  35.1182753  72.8678903
  67.8176993  34.3892753  72.7308903  63.1406993  23.5332753  71.9538903
  62.8186993  22.9572753  71.3838903  62.7816993  24.2882753  71.7078903
  63.0406993  23.5592753  71.8338903  63.9366993  16.7852753  56.5808903
  64.0146993  17.0322753  55.7478903  63.1936993  17.1622753  56.8388903
  63.8386993  16.8772753  56.4958903  61.5756993  33.8892753  72.2018903
  61.6166993  34.0152753  73.0648903  62.2266993  33.3292753  72.0458903
  61.6776993  33.8252753  72.3068903  58.7546993  18.5392753  69.0238903
  58.4116993  17.7722753  68.7898903  58.0596993  19.0632753  69.0878903
  58.6016993  18.5032753  68.9988903  67.8006993  17.3952753  66.0008903
  68.4706993  17.9392753  66.1278903  67.2976993  17.8192753  65.4278903
  67.8256993  17.5382753  65.9348903  59.1686993  32.2722753  73.5618903
  59.7636993  32.7032753  74.0338903  58.8046993  32.8962753  73.0728903
  59.2026993  32.4282753  73.5588903  67.1596993  23.2032753  63.4938903
  67.7106993  22.5962753  63.7938903  66.7346993  23.4662753  64.2088903
  67.1786993  23.1522753  63.6428903  57.4076993  21.8532753  62.9798903
  57.0396993  22.1552753  63.7108903  57.9416993  21.2242753  63.2638903
  57.4316993  21.8052753  63.1298903  57.0956993  30.2612753  70.4908903
  56.5216993  30.6772753  70.9998903  57.8286993  30.7262753  70.5858903
  57.1196993  30.3912753  70.5798903  69.1296993  25.0342753  60.0558903
  69.1976993  24.1842753  60.2368903  68.3066993  25.1202753  59.7778903
  69.0176993  24.9212753  60.0418903  58.8816993  33.5282753  59.2658903
  58.7366993  33.6842753  58.4198903  59.7476993  33.6072753  59.3438903
  58.9886993  33.5632753  59.1528903  63.0486993  25.9252753  58.9938903
  63.1486993  26.0642753  58.1388903  63.8666993  25.8652753  59.2898903
  63.1836993  25.9362753  58.9108903  68.2836993  30.2542753  58.7958903
  68.0326993  30.1262753  59.6218903  67.9666993  29.5592753  58.3748903
  68.1996993  30.1332753  58.8558903  62.1876993  18.9002753  72.1098903
  62.4216993  18.3242753  71.4968903  61.3456993  18.7192753  72.2508903
  62.0976993  18.7882753  72.0398903  69.8146993  26.5182753  74.5618903
  70.6856993  26.4822753  74.5258903  69.5956993  26.9382753  73.8298903
  69.9116993  26.5742753  74.4488903  59.5686993  32.3432753  65.7428903
  59.4896993  31.5332753  65.4268903  59.1246993  32.8302753  65.1708903
  59.4916993  32.2952753  65.6118903  65.1696993  28.4622753  58.2258903
  65.8866993  28.1152753  57.8698903  65.1356993  29.2622753  57.8778903
  65.2706993  28.5292753  58.1218903  57.1406993  34.5872753  69.3238903
  57.6336993  34.5312753  70.0418903  57.3286993  33.8542753  68.8888903
  57.2416993  34.4702753  69.3658903  66.5786993  17.1032753  42.4646493
  66.3336993  17.5912753  41.7846493  67.4416993  17.0302753  42.3646493
  66.6696993  17.1642753  42.3496493  66.3876993  24.0192753  47.1356493
  65.8636993  24.6152753  47.4986493  66.7846993  23.6512753  47.8196493
  66.3686993  24.0532753  47.2906493  56.2566993  28.1592753  42.5916493
  55.8156993  28.2772753  43.3346493  55.9736993  27.3842753  42.3066493
  56.1496993  28.0622753  42.6596493  55.9996993  21.9512753  39.0986493
  55.2216993  22.1132753  38.7386493  56.0386993  21.0802753  39.1206493
  55.8906993  21.8462753  39.0486493  59.1386993  27.2142753  37.7706493
  58.7466993  26.8432753  37.0846493  59.0586993  26.6162753  38.3996493
  59.0686993  27.0712753  37.7616493  69.0586993  25.0862753  43.8116493
  69.1386993  25.0902753  42.9426493  68.4746993  24.4542753  43.9606493
  68.9836993  24.9932753  43.7056493  58.7656993  28.8552753  41.6706493
  59.3736993  28.6852753  42.2736493  58.0146993  28.7152753  42.0916493
  58.7446993  28.8092753  41.8216493  63.0476993  18.1902753  41.6196493
  62.9776993  18.8672753  41.0736493  63.7886993  17.8022753  41.3706493
  63.1466993  18.2332753  41.5016493  57.6566993  31.9462753  37.7476493
  58.1236993  32.0302753  37.0156493  58.1116993  31.3682753  38.2166493
  57.7926993  31.8732753  37.7086493  56.1966993  30.8942753  48.8466493
  56.3256993  30.6142753  49.6626493  55.5866993  30.3532753  48.5376493
  56.1256993  30.7732753  48.9216493  62.7706993  28.4192753  53.9136493
  62.5346993  28.4162753  54.7536493  62.0226993  28.2712753  53.4896493
  62.6246993  28.3962753  53.9746493  57.6426993  25.4152753  43.0486493
  57.1806993  25.0232753  42.4216493  58.3426993  24.9022753  43.1406493
  57.6776993  25.2822753  42.9696493  62.1506993  21.0252753  48.3956493
  62.8286993  21.0432753  47.8466493  62.1056993  20.1892753  48.6406493
  62.2436993  20.9042753  48.3506493  62.7526993  31.6112753  51.1766493
  62.8906993  32.3712753  50.7696493  63.5436993  31.2462753  51.2036493
  62.8896993  31.6702753  51.1206493  59.6436993  23.5152753  43.0716493
  60.4606993  23.3282753  43.3146493  59.1666993  22.9012753  43.4676493
  59.6936993  23.3972753  43.1666493  63.8476993  29.4962753  45.6816493
  64.1956993  28.6972753  45.7116493  64.5126993  30.0002753  45.4266493
  63.9976993  29.4522753  45.6486493  63.9046993  28.9452753  41.8926493
  64.2356993  28.3012753  42.3786493  64.1446993  28.7342753  41.0816493
  63.9886993  28.8192753  41.8446493  65.8726993  23.0762753  53.2316493
  65.0246993  22.9772753  53.0536493  65.9016993  23.8212753  53.6856493
  65.7516993  23.1722753  53.2726493  60.2406993  18.6092753  42.3376493
  59.9446993  19.1102753  41.6876493  61.1076993  18.6872753  42.2806493
  60.3246993  18.6952753  42.2336493  70.4306993  16.0362753  52.3456493
  70.2726993  16.8052753  51.9636493  69.6586993  15.8162753  52.6896493
  70.2926993  16.1172753  52.3406493  63.2196993  17.7512753  44.5606493
  63.2926993  18.6112753  44.6896493  63.1816993  17.6762753  43.6926493
  63.2246993  17.8672753  44.4516493  67.8926993  20.6772753  36.8596493
  67.4426993  21.3582753  37.1666493  68.0066993  20.1732753  37.5626493
  67.8436993  20.7032753  37.0086493  56.0986993  23.1762753  46.0616493
  55.8426993  24.0072753  45.9866493  55.4346993  22.7932753  46.4786493
  55.9626993  23.2422753  46.1126493  56.0086993  32.8862753  43.9616493
  55.4166993  33.4442753  43.6486493  56.4346993  32.6172753  43.2496493
  55.9846993  32.9282753  43.8106493  61.8486993  30.7302753  41.4416493
  61.2696993  30.4552753  42.0336493  62.4726993  30.1212753  41.4666493
  61.8556993  30.6002753  41.5326493  67.9916993  33.0182753  38.9636493
  68.7186993  33.4902753  39.0656493  68.2206993  32.2242753  39.2436493
  68.1336993  32.9712753  39.0206493  66.1596993  33.4102753  40.9536493
  66.3736993  33.9372753  41.6156493  66.9266993  33.2362753  40.5746493
  66.3046993  33.4622753  40.9956493  59.1276993  17.9932753  46.5526493
  58.6066993  17.3652753  46.2446493  59.7186993  17.5562753  47.0236493
  59.1386993  17.8352753  46.5766493  62.4336993  20.1262753  55.8506493
  62.5506993  19.6722753  55.1146493  62.7216993  20.9242753  55.6476493
  62.4936993  20.1772753  55.7116493  57.5536993  31.5562753  41.8926493
  58.2096993  30.9812753  41.9076493  57.9426993  32.3052753  41.6716493
  57.7086993  31.5812753  41.8626493  68.5986993  33.4202753  49.2586493
  69.3426993  33.8762753  49.2486493  68.4776993  33.2062753  48.4216493
  68.6906993  33.4562753  49.1336493  58.1666993  19.7232753  54.8346493
  57.3886993  19.3332753  54.7626493  58.6576993  19.3112753  54.2436493
  58.1236993  19.6042753  54.7366493  58.3716993  30.0432753  45.3926493
  58.7946993  29.6872753  44.7186493  58.6956993  29.6212753  46.0846493
  58.4816993  29.9282753  45.3956493  61.6026993  32.8952753  44.6886493
  62.4466993  32.9992753  44.4936493  61.3056993  33.7132753  44.7566493
  61.6836993  33.0312753  44.6696493  64.8156993  17.3662753  54.0026493
  64.9936993  16.5572753  53.7276493  64.6726993  17.8072753  53.2636493
  64.8206993  17.3122753  53.8526493  65.4096993  22.2922753  42.7756493
  65.6966993  22.0602753  41.9856493  66.1416993  22.3712753  43.2446493
  65.5596993  22.2692753  42.7286493  66.1316993  22.6312753  37.8966493
  66.4126993  23.4192753  38.1456493  65.3556993  22.7962753  37.5336493
  66.0586993  22.7722753  37.8796493  70.1726993  34.6052753  39.3636493
  70.8376993  34.4572753  38.8186493  70.5326993  34.5222753  40.1536493
  70.3246993  34.5712753  39.3996493  60.6006993  34.1142753  50.4286493
  60.8926993  34.0472753  51.2486493  59.9746993  33.5092753  50.3836493
  60.5516993  34.0152753  50.5436493  55.5146993  20.2712753  52.4206493
  55.5106993  20.8582753  53.0666493  56.1086993  20.5832753  51.8636493
  55.6016993  20.4042753  52.4336493  67.8526993  30.6052753  52.9626493
  67.8186993  30.9872753  53.7466493  68.7066993  30.5632753  52.7916493
  67.9736993  30.6552753  53.0536493  64.9906993  30.8022753  37.7126493
  64.8096993  31.3472753  38.3696493  65.7566993  31.0922753  37.4116493
  65.0766993  30.9262753  37.7656493  68.4976993  18.6982753  38.7666493
  69.0376993  18.0162753  38.8426493  68.5596993  19.0962753  39.5406493
  68.5866993  18.6562753  38.8926493  56.4516993  19.8662753  41.3356493
  56.3376993  19.0022753  41.3666493  55.9766993  20.1602753  42.0056493
  56.3646993  19.7822753  41.4386493  58.5936993  32.2762753  49.5506493
  57.8956993  31.7682753  49.6766493  58.8536993  32.0712753  48.7426493
  58.5286993  32.1712753  49.4496493  65.7556993  21.0742753  40.0806493
  65.2476993  20.4122753  39.8266493  65.8076993  21.5782753  39.3706493
  65.6886993  21.0512753  39.9386493  66.3046993  33.7692753  50.4606493
  67.0726993  33.6892753  50.0546493  65.7216993  33.6482753  49.8226493
  66.3316993  33.7392753  50.3066493  65.7556993  18.0152753  39.9716493
  65.3006993  17.6132753  39.3456493  66.5286993  18.1702753  39.5966493
  65.8026993  17.9792753  39.8236493  64.3536993  20.3822753  44.4936493
  64.4276993  20.9502753  43.8356493  64.4746993  20.8742753  45.2036493
  64.3816993  20.5392753  44.5016493  69.5786993  30.2172753  42.9056493
  70.2796993  29.7352753  43.0946493  68.9186993  29.6482753  42.9506493
  69.5846993  30.0622753  42.9396493  59.9546993  31.1272753  52.1176493
  60.7956993  31.1902753  51.8956493  59.9176993  31.5242753  52.8936493
  60.0736993  31.1952753  52.1996493  58.9616993  16.2052753  42.8416493
  59.4976993  16.8932753  42.8316493  58.9646993  15.9312753  42.0136493
  59.0406993  16.2662753  42.7176493  61.9176993  26.6382753  46.8666493
  62.0896993  26.4282753  47.6956493  61.2626993  26.1042753  46.6506493
  61.8466993  26.5282753  46.9576493  68.1456993  20.5522753  50.3816493
  68.0506993  20.8712753  51.1876493  67.5526993  19.9132753  50.3436493
  68.0436993  20.5042753  50.4956493  62.6676993  26.5762753  49.4566493
  62.7206993  27.4232753  49.6586493  62.3826993  26.2062753  50.1936493
  62.6336993  26.6462753  49.5946493  68.8446993  27.2712753  48.5866493
  68.3306993  26.8592753  49.1576493  68.7186993  28.1152753  48.7676493
  68.7506993  27.3352753  48.6976493  69.4016993  16.4962753  43.2176493
  69.4506993  16.1782753  44.0286493  69.7246993  15.8522753  42.7246493
  69.4566993  16.3542753  43.2646493  55.4886993  30.9472753  55.6676493
  56.2446993  31.2962753  55.9256493  55.6656993  30.0942753  55.6106493
  55.6266993  30.8722753  55.6976493  59.4096993  20.0152753  44.4956493
  59.6816993  19.5852753  43.7876493  59.2336993  19.3792753  45.0666493
  59.4236993  19.8582753  44.4756493  59.2336993  27.4422753  44.0446493
  60.0846993  27.3622753  43.8716493  58.8766993  26.7602753  43.6326493
  59.3066993  27.3292753  43.9576493  58.0006993  34.1672753  45.2816493
  57.3276993  33.6692753  45.0366493  58.4036993  34.3522753  44.5306493
  57.9606993  34.1212753  45.1346493  57.5506993  21.1172753  47.5776493
  58.3936993  21.3372753  47.5346493  57.1616993  21.6902753  47.0466493
  57.6176993  21.2342753  47.4926493  69.9926993  24.2472753  38.2986493
  69.7726993  24.9782753  37.8766493  69.5446993  24.2982753  39.0456493
  69.8936993  24.3622753  38.3466493  61.6016993  27.4492753  42.2796493
  62.3146993  27.9442753  42.3696493  61.8236993  26.8822753  41.6536493
  61.7396993  27.4382753  42.2006493  55.7576993  29.0922753  45.5996493
  55.0906993  29.5802753  45.8756493  56.4376993  29.6372753  45.6286493
  55.7596993  29.2442753  45.6446493  63.4046993  22.8022753  55.6956493
  62.9206993  23.3792753  56.1376493  63.3766993  23.0972753  54.8746493
  63.3286993  22.9312753  55.6396493  55.8236993  25.7762753  40.7026493
  55.6386993  24.9372753  40.8546493  56.4826993  25.7402753  40.1326493
  55.8936993  25.6472753  40.6406493  66.1246993  31.1522753  44.6066493
  65.6016993  31.7862753  44.3136493  66.4346993  30.7882753  43.8776493
  66.0926993  31.1922753  44.4556493  55.9956993  29.9402753  40.2776493
  56.5476993  30.5092753  40.6416493  55.7636993  29.4252753  40.9426493
  56.0426993  29.9482753  40.4296493  60.1996993  28.9402753  47.3666493
  60.6666993  29.2292753  48.0446493  60.7716993  28.4622753  46.9126493
  60.3536993  28.9122753  47.3996493  68.6356993  20.9542753  45.1036493
  68.9796993  21.1062753  45.8906493  68.1826993  20.2162753  45.2166493
  68.6196993  20.8672753  45.2366493  55.8256993  28.3892753  37.9056493
  56.5816993  27.9572753  37.9636493  55.8406993  28.9212753  38.5966493
  55.9396993  28.4042753  38.0166493  56.7656993  26.6102753  45.9106493
  57.1966993  26.4812753  45.1636493  56.5606993  27.4582753  45.8846493
  56.7986993  26.7162753  45.7966493  63.1116993  20.1742753  39.5606493
  63.1096993  20.0572753  38.6956493  62.9306993  21.0222753  39.6526493
  63.0846993  20.2822753  39.4466493  60.8496993  30.1262753  44.1926493
  60.9756993  30.9692753  44.3796493  61.5176993  29.7272753  44.5886493
  60.9676993  30.1922753  44.2786493  58.9796993  23.6092753  54.0546493
  58.4436993  23.1032753  54.5226493  58.9996993  23.2192753  53.2746493
  58.9026993  23.4762753  54.0086493  59.4646993  23.0062753  39.1946493
  59.3366993  22.5582753  39.9326493  58.8826993  22.6642753  38.6426493
  59.3596993  22.8892753  39.2226493  59.6316993  24.8362753  45.7936493
  58.8506993  24.7772753  45.4106493  59.7036993  24.0842753  46.2306493
  59.5266993  24.7172753  45.8016493  60.0616993  24.5732753  49.2616493
  60.0866993  23.8982753  48.7106493  59.4156993  25.0692753  48.9496493
  59.9706993  24.5462753  49.1346493  69.9566993  22.2862753  47.6576493
  69.2946993  22.6142753  48.1206493  70.1436993  22.9202753  47.0886493
  69.8866993  22.4282753  47.6416493  64.1616993  33.3502753  48.6536493
  63.8846993  32.7092753  48.1306493  63.9536993  34.0762753  48.2156493
  64.0906993  33.3632753  48.5116493  66.6016993  18.1922753  51.0866493
  66.7506993  17.3672753  50.8436493  66.9806993  18.2472753  51.8706493
  66.6796993  18.0782753  51.1666493  68.1496993  20.2552753  41.1686493
  68.6396993  20.9722753  41.0916493  67.3596993  20.5162753  40.9056493
  68.1056993  20.3992753  41.1186493  57.8606993  25.9282753  54.8206493
  57.8236993  26.4292753  54.1066493  58.1916993  25.1762753  54.5256493
  57.9036993  25.8902753  54.6716493  69.4636993  28.1332753  53.0786493
  69.9476993  28.8512753  53.1766493  69.8576993  27.7062753  52.4276493
  69.5936993  28.1762753  52.9966493  63.7596993  30.9782753  54.2556493
  64.1136993  30.8002753  55.0326493  63.3236993  30.2492753  54.0566493
  63.7476993  30.8442753  54.3416493  64.7316993  21.7252753  46.8936493
  65.2116993  22.4242753  47.1016493  65.1046993  21.0782753  47.3446493
  64.8576993  21.7332753  46.9906493  66.9206993  24.8942753  39.1676493
  66.9126993  25.6162753  38.6776493  66.2816993  25.0292753  39.7446493
  66.8256993  25.0212753  39.1806493  67.9376993  31.8302753  46.9926493
  67.3346993  31.5342753  46.4356493  68.4826993  32.2822753  46.4836493
  67.9286993  31.8532753  46.8346493  67.9506993  28.6812753  46.3926493
  67.1536993  28.9052753  46.6666493  68.2086993  28.0872753  46.9776493
  67.8706993  28.6262753  46.5196493  61.8426993  33.4932753  40.8406493
  61.6956993  32.7172753  41.2116493  62.5316993  33.3462753  40.3256493
  61.9226993  33.3562753  40.8196493  61.5136993  17.2362753  38.8286493
  61.6106993  17.1292753  39.6896493  60.8056993  17.7422753  38.7636493
  61.4236993  17.2952753  38.9466493  64.1346993  33.0092753  39.2426493
  64.7566993  33.1722753  39.8326493  64.1706993  33.7002753  38.7106493
  64.2316993  33.1352753  39.2516493  67.4016993  32.0282753  55.5156493
  67.5656993  32.3112753  56.3246493  67.6646993  32.6892753  55.0106493
  67.4646993  32.1682753  55.5606493  58.6356993  25.5432753  40.0716493
  58.9596993  24.7642753  39.8496493  59.2816993  25.9112753  40.5266493
  58.7786993  25.4822753  40.1056493  66.9416993  26.4852753  50.8386493
  66.7866993  27.0952753  51.4426493  67.4756993  25.9272753  51.2446493
  66.9976993  26.4932753  50.9876493  55.6326993  17.2042753  41.0396493
  55.7616993  16.4962753  40.5476493  55.2656993  16.8862753  41.7646493
  55.5976993  17.0522753  41.0746493  65.3256993  24.8852753  41.4966493
  65.3846993  25.5352753  42.0756493  65.1366993  24.1892753  41.9876493
  65.3066993  24.8782753  41.6546493  70.5516993  29.2142753  47.3656493
  70.0726993  29.5122753  46.6996493  70.1956993  28.4382753  47.5436493
  70.4286993  29.1432753  47.2936493  59.8216993  19.4022753  38.0086493
  59.3106993  19.4552753  37.3026493  60.6056993  19.6422753  37.7126493
  59.8616993  19.4452753  37.8606493  64.5486993  26.9322753  45.9276493
  63.7016993  26.7382753  46.0086493  64.8726993  26.7672753  46.7206493
  64.4706993  26.8792753  46.0566493  61.3006993  33.6622753  36.8136493
  61.7396993  32.9652753  37.1016493  61.5076993  34.2862753  37.3866493
  61.3966993  33.6512753  36.9406493  58.3966993  26.6252753  48.2436493
  59.1186993  27.1132753  48.2066493  58.1266993  26.5952753  47.4146493
  58.4636993  26.6932753  48.1156493  61.6266993  21.7962753  44.9786493
  62.4726993  21.6062753  45.0766493  61.2566993  21.0192753  44.8406493
  61.6966993  21.6532753  44.9726493  56.4476993  23.1342753  41.6336493
  56.9366993  22.8422753  42.2946493  56.5766993  22.5412753  41.0066493
  56.5386993  23.0032753  41.6386493  60.9726993  24.5682753  37.1196493
  60.3626993  24.1632753  37.5936493  60.5866993  24.6862753  36.3466493
  60.8256993  24.5252753  37.0756493  57.7916993  27.6772753  52.5216493
  57.3706993  27.1592753  51.9606493  57.4396993  28.4632753  52.3786493
  57.6776993  27.7172753  52.4176493  62.4276993  23.0292753  39.8296493
  62.6996993  23.8552753  39.8966493  61.5646993  23.1042753  39.7336493
  62.3406993  23.1622753  39.8246493  70.4006993  20.1512753  54.4616493
  69.8756993  20.6102753  54.9856493  70.0396993  19.3562753  54.4556493
  70.2696993  20.1012753  54.5376493  55.9076993  18.9992753  46.3656493
  55.9516993  19.3432753  45.5646493  56.6626993  19.2362753  46.7326493
  56.0256993  19.0852753  46.3016493  68.8926993  23.7202753  54.5376493
  68.9656993  23.8242753  55.4006493  68.2586993  24.2782753  54.3166493
  68.8096993  23.8182753  54.6326493  70.4746993  30.4632753  38.4326493
  70.8086993  29.6572753  38.4676493  69.7196993  30.3912753  38.8626493
  70.4126993  30.3332753  38.5016493  70.9566993  22.2972753  44.0916493
  70.2116993  21.9742753  44.4096493  70.9586993  23.1232753  44.3716493
  70.8466993  22.3712753  44.1796493  67.8486993  28.3382753  37.8356493
  68.5326993  27.8242753  37.6666493  67.4316993  28.3842753  37.0706493
  67.8876993  28.2692753  37.6976493  62.5306993  29.4882753  49.1396493
  62.2326993  30.0802753  49.7066493  62.5856993  29.9302753  48.3906493
  62.4946993  29.6412753  49.1126493  60.5096993  28.4382753  52.5376493
  59.7036993  28.1482753  52.7046493  60.4206993  29.3062753  52.5436493
  60.3776993  28.5232753  52.5626493  69.8686993  18.6272753  51.5526493
  70.6126993  19.0792753  51.4896493  69.3026993  19.0972753  51.0836493
  69.8956993  18.7642753  51.4746493  65.0466993  25.9112753  48.6306493
  65.5226993  26.2852753  49.2586493  64.2236993  26.0452753  48.8896493
  64.9956993  25.9862753  48.7616493  61.7566993  21.5142753  51.3716493
  61.9176993  20.7702753  51.7986493  61.7116993  21.2652753  50.5366493
  61.7736993  21.3672753  51.3116493  64.3106993  33.3042753  43.8586493
  64.8566993  33.9832753  43.9126493  63.9606993  33.3862753  43.0636493
  64.3396993  33.4172753  43.7486493  63.5086993  17.3222753  51.2516493
  64.2136993  17.6422753  50.8496493  63.7496993  16.5152753  51.4786493
  63.6476993  17.2502753  51.2256493  62.4936993  31.5322753  47.2476493
  61.8696993  32.1142753  47.0656493  62.7416993  31.2462753  46.4616493
  62.4376993  31.5762753  47.1046493  66.8026993  28.1662753  54.2366493
  67.5596993  28.4522753  53.9106493  66.2556993  28.2182753  53.5586493
  66.8336993  28.2162753  54.0876493  70.7116993  30.7162753  52.7406493
  71.0576993  30.9862753  53.4946493  71.0056993  31.2982753  52.1606493
  70.8066993  30.8422753  52.7666493  64.0876993  26.3082753  37.1626493
  63.2826993  26.1312753  36.8776493  64.0546993  27.1592753  37.3546493
  63.9636993  26.4072753  37.1496493  60.0176993  22.3752753  47.3126493
  60.4576993  22.2722753  46.5666493  60.5626993  22.0622753  47.9176493
  60.1626993  22.3142753  47.2916493  68.0336993  21.4772753  52.9046493
  67.3856993  21.9472753  53.2526493  68.5986993  21.3882753  53.5636493
  68.0216993  21.5332753  53.0536493  67.7216993  23.0142753  49.2026493
  68.0236993  23.4342753  49.9056493  67.7576993  22.1742753  49.4346493
  67.7716993  22.9522753  49.3406493  65.1466993  33.1812753  53.1276493
  65.6246993  32.5812753  52.7116493  64.7956993  32.7382753  53.7926493
  65.1656993  33.0272753  53.1646493  70.2696993  22.4612753  41.4546493
  70.4766993  22.2602753  42.2786493  71.0256993  22.7292753  41.1126493
  70.4116993  22.4712753  41.5256493  63.5646993  17.3602753  47.3596493
  62.7386993  17.2112753  47.5966493  63.5246993  17.3952753  46.4886493
  63.4366993  17.3432753  47.2656493  65.2056993  28.4002753  52.1476493
  64.4106993  28.3362753  52.4986493  65.2766993  29.2472753  51.9526493
  65.0986993  28.5152753  52.1706493  56.1296993  17.7582753  53.3946493
  55.9896993  18.5532753  53.0636493  55.3436993  17.5152753  53.6836493
  55.9926993  17.8402753  53.3886493  61.0356993  34.6072753  47.4646493
  61.0466993  34.6662753  48.3346493  60.6106993  33.8602753  47.3146493
  60.9746993  34.5052753  47.5706493  59.1936993  20.5022753  40.6196493
  59.3196993  20.1732753  39.8216493  58.3816993  20.2532753  40.8186493
  59.0926993  20.4172753  40.5316493  67.9506993  27.6552753  43.6636493
  68.0266993  27.9962753  44.4626493  68.1196993  26.8082753  43.7846493
  67.9866993  27.5802753  43.7996493  65.4726993  26.9292753  43.2286493
  65.1746993  26.6142753  43.9856493  66.1676993  27.4022753  43.4636493
  65.5316993  26.9522753  43.3756493  65.6946993  31.0472753  51.2556493
  66.3816993  30.9332753  51.7806493  65.8286993  31.8382753  50.9116493
  65.8156993  31.1472753  51.2826493  68.3836993  24.3212753  51.6426493
  68.1286993  23.6022753  52.0646493  69.2046993  24.4372753  51.9126493
  68.4676993  24.2322753  51.7446493  57.7996993  34.1052753  52.9066493
  57.1456993  33.5362753  53.0046493  57.4246993  34.8782753  53.0576493
  57.6476993  34.1352753  52.9436493  66.3176993  25.5112753  54.8296493
  66.6406993  26.1972753  54.3976493  65.6136993  25.8342753  55.2316493
  66.2606993  25.6602753  54.8246493  69.4016993  33.8852753  45.7586493
  68.9506993  34.5282753  46.1376493  70.1096993  33.8062753  46.2636493
  69.4396993  33.9682753  45.8896493  66.1026993  28.9752753  48.6886493
  65.4086993  29.3772753  49.0316493  66.7796993  29.4082753  49.0276493
  66.0996993  29.0982753  48.7896493  59.1706993  22.5132753  51.0356493
  59.5456993  23.1322753  50.5486493  59.8446993  22.0392753  51.3206493
  59.3256993  22.5352753  51.0056493  56.9456993  20.9612753  50.3106493
  57.0226993  20.7922753  49.4576493  57.6916993  21.3672753  50.5076493
  57.0666993  20.9962753  50.2136493  59.4996993  18.3712753  52.7216493
  59.4186993  17.5272753  52.9276493  59.1856993  18.4152753  51.9086493
  59.4416993  18.2532753  52.6316493  66.4246993  30.5662753  41.8576493
  66.2196993  31.3992753  41.6986493  65.6496993  30.1842753  41.9796493
  66.2796993  30.6332753  41.8526493  56.3426993  26.1872753  50.5346493
  56.6626993  26.4062753  49.7536493  56.2426993  25.3222753  50.4796493
  56.3746993  26.0922753  50.4116493  57.7986993  22.1232753  37.1526493
  57.1266993  22.1372753  37.7086493  57.8936993  21.2752753  36.9686493
  57.7136993  22.0002753  37.2076493  67.4856993  18.5472753  53.8886493
  67.5776993  19.2592753  54.3826493  66.8486993  18.1022753  54.2856493
  67.4046993  18.5862753  54.0206493  66.4796993  18.7372753  44.7426493
  65.7796993  19.2552753  44.6866493  66.5176993  18.3572753  43.9586493
  66.3816993  18.7582753  44.6186493  61.7866993  30.8282753  38.2666493
  62.2276993  30.9082753  39.0146493  60.9816993  30.6122753  38.5246493
  61.7326993  30.8082753  38.4156493  70.0776993  19.2532753  47.5426493
  70.9326993  19.3522753  47.6876493  69.7086993  19.8062753  48.1076493
  70.1496993  19.3502753  47.6476493  61.1056993  25.4792753  51.9196493
  60.7096993  26.2532753  51.9946493  60.6996993  25.1062753  51.2436493
  60.9876993  25.5382753  51.8306493  70.3816993  24.5332753  46.0336493
  71.0476993  25.0742753  46.1936493  70.0366993  24.8442753  45.2946493
  70.4286993  24.6592753  45.9486493  59.1156993  29.8982753  38.8676493
  58.8716993  29.5912753  39.6476493  59.0826993  29.1952753  38.3516493
  59.0746993  29.7492753  38.9066493  61.9346993  28.1432753  37.6106493
  61.1166993  27.8752753  37.7506493  61.9066993  28.9952753  37.7956493
  61.8096993  28.2302753  37.6586493  61.5346993  18.4562753  49.3696493
  60.6706993  18.5402753  49.4496493  61.7546993  17.9422753  50.0386493
  61.4396993  18.3932753  49.4806493  65.6376993  19.2042753  47.7436493
  64.9006993  18.7502753  47.8566493  66.2086993  18.8022753  48.2666493
  65.6126993  19.0772753  47.8376493  68.3696993  30.0522753  49.5316493
  68.5756993  30.3532753  50.3236493  68.3086993  30.7742753  49.0466493
  68.3906993  30.2032753  49.5766493  67.9036993  34.2662753  53.7776493
  67.1506993  34.2482753  53.3366493  68.0716993  35.1182753  53.8616493
  67.8176993  34.3892753  53.7246493  63.1406993  23.5332753  52.9476493
  62.8186993  22.9572753  52.3776493  62.7816993  24.2882753  52.7016493
  63.0406993  23.5592753  52.8276493  63.9366993  16.7852753  37.5746493
  64.0146993  17.0322753  36.7416493  63.1936993  17.1622753  37.8326493
  63.8386993  16.8772753  37.4896493  61.5756993  33.8892753  53.1956493
  61.6166993  34.0152753  54.0586493  62.2266993  33.3292753  53.0396493
  61.6776993  33.8252753  53.3006493  58.7546993  18.5392753  50.0176493
  58.4116993  17.7722753  49.7836493  58.0596993  19.0632753  50.0816493
  58.6016993  18.5032753  49.9926493  67.8006993  17.3952753  46.9946493
  68.4706993  17.9392753  47.1216493  67.2976993  17.8192753  46.4216493
  67.8256993  17.5382753  46.9286493  59.1686993  32.2722753  54.5556493
  59.7636993  32.7032753  55.0276493  58.8046993  32.8962753  54.0666493
  59.2026993  32.4282753  54.5526493  67.1596993  23.2032753  44.4876493
  67.7106993  22.5962753  44.7876493  66.7346993  23.4662753  45.2026493
  67.1786993  23.1522753  44.6366493  57.4076993  21.8532753  43.9736493
  57.0396993  22.1552753  44.7046493  57.9416993  21.2242753  44.2576493
  57.4316993  21.8052753  44.1236493  57.0956993  30.2612753  51.4846493
  56.5216993  30.6772753  51.9936493  57.8286993  30.7262753  51.5796493
  57.1196993  30.3912753  51.5736493  69.1296993  25.0342753  41.0496493
  69.1976993  24.1842753  41.2306493  68.3066993  25.1202753  40.7716493
  69.0176993  24.9212753  41.0356493  58.8816993  33.5282753  40.2596493
  58.7366993  33.6842753  39.4136493  59.7476993  33.6072753  40.3376493
  58.9886993  33.5632753  40.1466493  63.0486993  25.9252753  39.9876493
  63.1486993  26.0642753  39.1326493  63.8666993  25.8652753  40.2836493
  63.1836993  25.9362753  39.9046493  68.2836993  30.2542753  39.7896493
  68.0326993  30.1262753  40.6156493  67.9666993  29.5592753  39.3686493
  68.1996993  30.1332753  39.8496493  62.1876993  18.9002753  53.1036493
  62.4216993  18.3242753  52.4906493  61.3456993  18.7192753  53.2446493
  62.0976993  18.7882753  53.0336493  69.8146993  26.5182753  55.5556493
  70.6856993  26.4822753  55.5196493  69.5956993  26.9382753  54.8236493
  69.9116993  26.5742753  55.4426493  59.5686993  32.3432753  46.7366493
  59.4896993  31.5332753  46.4206493  59.1246993  32.8302753  46.1646493
  59.4916993  32.2952753  46.6056493  65.1696993  28.4622753  39.2196493
  65.8866993  28.1152753  38.8636493  65.1356993  29.2622753  38.8716493
  65.2706993  28.5292753  39.1156493  57.1406993  34.5872753  50.3176493
  57.6336993  34.5312753  51.0356493  57.3286993  33.8542753  49.8826493
  57.2416993  34.4702753  50.3596493  66.5786993  17.1032753  23.4584083
  66.3336993  17.5912753  22.7784083  67.4416993  17.0302753  23.3584083
  66.6696993  17.1642753  23.3434083  66.3876993  24.0192753  28.1294083
  65.8636993  24.6152753  28.4924083  66.7846993  23.6512753  28.8134083
  66.3686993  24.0532753  28.2844083  56.2566993  28.1592753  23.5854083
  55.8156993  28.2772753  24.3284083  55.9736993  27.3842753  23.3004083
  56.1496993  28.0622753  23.6534083  55.9996993  21.9512753  20.0924083
  55.2216993  22.1132753  19.7324083  56.0386993  21.0802753  20.1144083
  55.8906993  21.8462753  20.0424083  59.1386993  27.2142753  18.7644083
  58.7466993  26.8432753  18.0784083  59.0586993  26.6162753  19.3934083
  59.0686993  27.0712753  18.7554083  69.0586993  25.0862753  24.8054083
  69.1386993  25.0902753  23.9364083  68.4746993  24.4542753  24.9544083
  68.9836993  24.9932753  24.6994083  58.7656993  28.8552753  22.6644083
  59.3736993  28.6852753  23.2674083  58.0146993  28.7152753  23.0854083
  58.7446993  28.8092753  22.8154083  63.0476993  18.1902753  22.6134083
  62.9776993  18.8672753  22.0674083  63.7886993  17.8022753  22.3644083
  63.1466993  18.2332753  22.4954083  57.6566993  31.9462753  18.7414083
  58.1236993  32.0302753  18.0094083  58.1116993  31.3682753  19.2104083
  57.7926993  31.8732753  18.7024083  56.1966993  30.8942753  29.8404083
  56.3256993  30.6142753  30.6564083  55.5866993  30.3532753  29.5314083
  56.1256993  30.7732753  29.9154083  62.7706993  28.4192753  34.9074083
  62.5346993  28.4162753  35.7474083  62.0226993  28.2712753  34.4834083
  62.6246993  28.3962753  34.9684083  57.6426993  25.4152753  24.0424083
  57.1806993  25.0232753  23.4154083  58.3426993  24.9022753  24.1344083
  57.6776993  25.2822753  23.9634083  62.1506993  21.0252753  29.3894083
  62.8286993  21.0432753  28.8404083  62.1056993  20.1892753  29.6344083
  62.2436993  20.9042753  29.3444083  62.7526993  31.6112753  32.1704083
  62.8906993  32.3712753  31.7634083  63.5436993  31.2462753  32.1974083
  62.8896993  31.6702753  32.1144083  59.6436993  23.5152753  24.0654083
  60.4606993  23.3282753  24.3084083  59.1666993  22.9012753  24.4614083
  59.6936993  23.3972753  24.1604083  63.8476993  29.4962753  26.6754083
  64.1956993  28.6972753  26.7054083  64.5126993  30.0002753  26.4204083
  63.9976993  29.4522753  26.6424083  63.9046993  28.9452753  22.8864083
  64.2356993  28.3012753  23.3724083  64.1446993  28.7342753  22.0754083
  63.9886993  28.8192753  22.8384083  65.8726993  23.0762753  34.2254083
  65.0246993  22.9772753  34.0474083  65.9016993  23.8212753  34.6794083
  65.7516993  23.1722753  34.2664083  60.2406993  18.6092753  23.3314083
  59.9446993  19.1102753  22.6814083  61.1076993  18.6872753  23.2744083
  60.3246993  18.6952753  23.2274083  70.4306993  16.0362753  33.3394083
  70.2726993  16.8052753  32.9574083  69.6586993  15.8162753  33.6834083
  70.2926993  16.1172753  33.3344083  63.2196993  17.7512753  25.5544083
  63.2926993  18.6112753  25.6834083  63.1816993  17.6762753  24.6864083
  63.2246993  17.8672753  25.4454083  67.8926993  20.6772753  17.8534083
  67.4426993  21.3582753  18.1604083  68.0066993  20.1732753  18.5564083
  67.8436993  20.7032753  18.0024083  56.0986993  23.1762753  27.0554083
  55.8426993  24.0072753  26.9804083  55.4346993  22.7932753  27.4724083
  55.9626993  23.2422753  27.1064083  56.0086993  32.8862753  24.9554083
  55.4166993  33.4442753  24.6424083  56.4346993  32.6172753  24.2434083
  55.9846993  32.9282753  24.8044083  61.8486993  30.7302753  22.4354083
  61.2696993  30.4552753  23.0274083  62.4726993  30.1212753  22.4604083
  61.8556993  30.6002753  22.5264083  67.9916993  33.0182753  19.9574083
  68.7186993  33.4902753  20.0594083  68.2206993  32.2242753  20.2374083
  68.1336993  32.9712753  20.0144083  66.1596993  33.4102753  21.9474083
  66.3736993  33.9372753  22.6094083  66.9266993  33.2362753  21.5684083
  66.3046993  33.4622753  21.9894083  59.1276993  17.9932753  27.5464083
  58.6066993  17.3652753  27.2384083  59.7186993  17.5562753  28.0174083
  59.1386993  17.8352753  27.5704083  62.4336993  20.1262753  36.8444083
  62.5506993  19.6722753  36.1084083  62.7216993  20.9242753  36.6414083
  62.4936993  20.1772753  36.7054083  57.5536993  31.5562753  22.8864083
  58.2096993  30.9812753  22.9014083  57.9426993  32.3052753  22.6654083
  57.7086993  31.5812753  22.8564083  68.5986993  33.4202753  30.2524083
  69.3426993  33.8762753  30.2424083  68.4776993  33.2062753  29.4154083
  68.6906993  33.4562753  30.1274083  58.1666993  19.7232753  35.8284083
  57.3886993  19.3332753  35.7564083  58.6576993  19.3112753  35.2374083
  58.1236993  19.6042753  35.7304083  58.3716993  30.0432753  26.3864083
  58.7946993  29.6872753  25.7124083  58.6956993  29.6212753  27.0784083
  58.4816993  29.9282753  26.3894083  61.6026993  32.8952753  25.6824083
  62.4466993  32.9992753  25.4874083  61.3056993  33.7132753  25.7504083
  61.6836993  33.0312753  25.6634083  64.8156993  17.3662753  34.9964083
  64.9936993  16.5572753  34.7214083  64.6726993  17.8072753  34.2574083
  64.8206993  17.3122753  34.8464083  65.4096993  22.2922753  23.7694083
  65.6966993  22.0602753  22.9794083  66.1416993  22.3712753  24.2384083
  65.5596993  22.2692753  23.7224083  66.1316993  22.6312753  18.8904083
  66.4126993  23.4192753  19.1394083  65.3556993  22.7962753  18.5274083
  66.0586993  22.7722753  18.8734083  70.1726993  34.6052753  20.3574083
  70.8376993  34.4572753  19.8124083  70.5326993  34.5222753  21.1474083
  70.3246993  34.5712753  20.3934083  60.6006993  34.1142753  31.4224083
  60.8926993  34.0472753  32.2424083  59.9746993  33.5092753  31.3774083
  60.5516993  34.0152753  31.5374083  55.5146993  20.2712753  33.4144083
  55.5106993  20.8582753  34.0604083  56.1086993  20.5832753  32.8574083
  55.6016993  20.4042753  33.4274083  67.8526993  30.6052753  33.9564083
  67.8186993  30.9872753  34.7404083  68.7066993  30.5632753  33.7854083
  67.9736993  30.6552753  34.0474083  64.9906993  30.8022753  18.7064083
  64.8096993  31.3472753  19.3634083  65.7566993  31.0922753  18.4054083
  65.0766993  30.9262753  18.7594083  68.4976993  18.6982753  19.7604083
  69.0376993  18.0162753  19.8364083  68.5596993  19.0962753  20.5344083
  68.5866993  18.6562753  19.8864083  56.4516993  19.8662753  22.3294083
  56.3376993  19.0022753  22.3604083  55.9766993  20.1602753  22.9994083
  56.3646993  19.7822753  22.4324083  58.5936993  32.2762753  30.5444083
  57.8956993  31.7682753  30.6704083  58.8536993  32.0712753  29.7364083
  58.5286993  32.1712753  30.4434083  65.7556993  21.0742753  21.0744083
  65.2476993  20.4122753  20.8204083  65.8076993  21.5782753  20.3644083
  65.6886993  21.0512753  20.9324083  66.3046993  33.7692753  31.4544083
  67.0726993  33.6892753  31.0484083  65.7216993  33.6482753  30.8164083
  66.3316993  33.7392753  31.3004083  65.7556993  18.0152753  20.9654083
  65.3006993  17.6132753  20.3394083  66.5286993  18.1702753  20.5904083
  65.8026993  17.9792753  20.8174083  64.3536993  20.3822753  25.4874083
  64.4276993  20.9502753  24.8294083  64.4746993  20.8742753  26.1974083
  64.3816993  20.5392753  25.4954083  69.5786993  30.2172753  23.8994083
  70.2796993  29.7352753  24.0884083  68.9186993  29.6482753  23.9444083
  69.5846993  30.0622753  23.9334083  59.9546993  31.1272753  33.1114083
  60.7956993  31.1902753  32.8894083  59.9176993  31.5242753  33.8874083
  60.0736993  31.1952753  33.1934083  58.9616993  16.2052753  23.8354083
  59.4976993  16.8932753  23.8254083  58.9646993  15.9312753  23.0074083
  59.0406993  16.2662753  23.7114083  61.9176993  26.6382753  27.8604083
  62.0896993  26.4282753  28.6894083  61.2626993  26.1042753  27.6444083
  61.8466993  26.5282753  27.9514083  68.1456993  20.5522753  31.3754083
  68.0506993  20.8712753  32.1814083  67.5526993  19.9132753  31.3374083
  68.0436993  20.5042753  31.4894083  62.6676993  26.5762753  30.4504083
  62.7206993  27.4232753  30.6524083  62.3826993  26.2062753  31.1874083
  62.6336993  26.6462753  30.5884083  68.8446993  27.2712753  29.5804083
  68.3306993  26.8592753  30.1514083  68.7186993  28.1152753  29.7614083
  68.7506993  27.3352753  29.6914083  69.4016993  16.4962753  24.2114083
  69.4506993  16.1782753  25.0224083  69.7246993  15.8522753  23.7184083
  69.4566993  16.3542753  24.2584083  55.4886993  30.9472753  36.6614083
  56.2446993  31.2962753  36.9194083  55.6656993  30.0942753  36.6044083
  55.6266993  30.8722753  36.6914083  59.4096993  20.0152753  25.4894083
  59.6816993  19.5852753  24.7814083  59.2336993  19.3792753  26.0604083
  59.4236993  19.8582753  25.4694083  59.2336993  27.4422753  25.0384083
  60.0846993  27.3622753  24.8654083  58.8766993  26.7602753  24.6264083
  59.3066993  27.3292753  24.9514083  58.0006993  34.1672753  26.2754083
  57.3276993  33.6692753  26.0304083  58.4036993  34.3522753  25.5244083
  57.9606993  34.1212753  26.1284083  57.5506993  21.1172753  28.5714083
  58.3936993  21.3372753  28.5284083  57.1616993  21.6902753  28.0404083
  57.6176993  21.2342753  28.4864083  69.9926993  24.2472753  19.2924083
  69.7726993  24.9782753  18.8704083  69.5446993  24.2982753  20.0394083
  69.8936993  24.3622753  19.3404083  61.6016993  27.4492753  23.2734083
  62.3146993  27.9442753  23.3634083  61.8236993  26.8822753  22.6474083
  61.7396993  27.4382753  23.1944083  55.7576993  29.0922753  26.5934083
  55.0906993  29.5802753  26.8694083  56.4376993  29.6372753  26.6224083
  55.7596993  29.2442753  26.6384083  63.4046993  22.8022753  36.6894083
  62.9206993  23.3792753  37.1314083  63.3766993  23.0972753  35.8684083
  63.3286993  22.9312753  36.6334083  55.8236993  25.7762753  21.6964083
  55.6386993  24.9372753  21.8484083  56.4826993  25.7402753  21.1264083
  55.8936993  25.6472753  21.6344083  66.1246993  31.1522753  25.6004083
  65.6016993  31.7862753  25.3074083  66.4346993  30.7882753  24.8714083
  66.0926993  31.1922753  25.4494083  55.9956993  29.9402753  21.2714083
  56.5476993  30.5092753  21.6354083  55.7636993  29.4252753  21.9364083
  56.0426993  29.9482753  21.4234083  60.1996993  28.9402753  28.3604083
  60.6666993  29.2292753  29.0384083  60.7716993  28.4622753  27.9064083
  60.3536993  28.9122753  28.3934083  68.6356993  20.9542753  26.0974083
  68.9796993  21.1062753  26.8844083  68.1826993  20.2162753  26.2104083
  68.6196993  20.8672753  26.2304083  55.8256993  28.3892753  18.8994083
  56.5816993  27.9572753  18.9574083  55.8406993  28.9212753  19.5904083
  55.9396993  28.4042753  19.0104083  56.7656993  26.6102753  26.9044083
  57.1966993  26.4812753  26.1574083  56.5606993  27.4582753  26.8784083
  56.7986993  26.7162753  26.7904083  63.1116993  20.1742753  20.5544083
  63.1096993  20.0572753  19.6894083  62.9306993  21.0222753  20.6464083
  63.0846993  20.2822753  20.4404083  60.8496993  30.1262753  25.1864083
  60.9756993  30.9692753  25.3734083  61.5176993  29.7272753  25.5824083
  60.9676993  30.1922753  25.2724083  58.9796993  23.6092753  35.0484083
  58.4436993  23.1032753  35.5164083  58.9996993  23.2192753  34.2684083
  58.9026993  23.4762753  35.0024083  59.4646993  23.0062753  20.1884083
  59.3366993  22.5582753  20.9264083  58.8826993  22.6642753  19.6364083
  59.3596993  22.8892753  20.2164083  59.6316993  24.8362753  26.7874083
  58.8506993  24.7772753  26.4044083  59.7036993  24.0842753  27.2244083
  59.5266993  24.7172753  26.7954083  60.0616993  24.5732753  30.2554083
  60.0866993  23.8982753  29.7044083  59.4156993  25.0692753  29.9434083
  59.9706993  24.5462753  30.1284083  69.9566993  22.2862753  28.6514083
  69.2946993  22.6142753  29.1144083  70.1436993  22.9202753  28.0824083
  69.8866993  22.4282753  28.6354083  64.1616993  33.3502753  29.6474083
  63.8846993  32.7092753  29.1244083  63.9536993  34.0762753  29.2094083
  64.0906993  33.3632753  29.5054083  66.6016993  18.1922753  32.0804083
  66.7506993  17.3672753  31.8374083  66.9806993  18.2472753  32.8644083
  66.6796993  18.0782753  32.1604083  68.1496993  20.2552753  22.1624083
  68.6396993  20.9722753  22.0854083  67.3596993  20.5162753  21.8994083
  68.1056993  20.3992753  22.1124083  57.8606993  25.9282753  35.8144083
  57.8236993  26.4292753  35.1004083  58.1916993  25.1762753  35.5194083
  57.9036993  25.8902753  35.6654083  69.4636993  28.1332753  34.0724083
  69.9476993  28.8512753  34.1704083  69.8576993  27.7062753  33.4214083
  69.5936993  28.1762753  33.9904083  63.7596993  30.9782753  35.2494083
  64.1136993  30.8002753  36.0264083  63.3236993  30.2492753  35.0504083
  63.7476993  30.8442753  35.3354083  64.7316993  21.7252753  27.8874083
  65.2116993  22.4242753  28.0954083  65.1046993  21.0782753  28.3384083
  64.8576993  21.7332753  27.9844083  66.9206993  24.8942753  20.1614083
  66.9126993  25.6162753  19.6714083  66.2816993  25.0292753  20.7384083
  66.8256993  25.0212753  20.1744083  67.9376993  31.8302753  27.9864083
  67.3346993  31.5342753  27.4294083  68.4826993  32.2822753  27.4774083
  67.9286993  31.8532753  27.8284083  67.9506993  28.6812753  27.3864083
  67.1536993  28.9052753  27.6604083  68.2086993  28.0872753  27.9714083
  67.8706993  28.6262753  27.5134083  61.8426993  33.4932753  21.8344083
  61.6956993  32.7172753  22.2054083  62.5316993  33.3462753  21.3194083
  61.9226993  33.3562753  21.8134083  61.5136993  17.2362753  19.8224083
  61.6106993  17.1292753  20.6834083  60.8056993  17.7422753  19.7574083
  61.4236993  17.2952753  19.9404083  64.1346993  33.0092753  20.2364083
  64.7566993  33.1722753  20.8264083  64.1706993  33.7002753  19.7044083
  64.2316993  33.1352753  20.2454083  67.4016993  32.0282753  36.5094083
  67.5656993  32.3112753  37.3184083  67.6646993  32.6892753  36.0044083
  67.4646993  32.1682753  36.5544083  58.6356993  25.5432753  21.0654083
  58.9596993  24.7642753  20.8434083  59.2816993  25.9112753  21.5204083
  58.7786993  25.4822753  21.0994083  66.9416993  26.4852753  31.8324083
  66.7866993  27.0952753  32.4364083  67.4756993  25.9272753  32.2384083
  66.9976993  26.4932753  31.9814083  55.6326993  17.2042753  22.0334083
  55.7616993  16.4962753  21.5414083  55.2656993  16.8862753  22.7584083
  55.5976993  17.0522753  22.0684083  65.3256993  24.8852753  22.4904083
  65.3846993  25.5352753  23.0694083  65.1366993  24.1892753  22.9814083
  65.3066993  24.8782753  22.6484083  70.5516993  29.2142753  28.3594083
  70.0726993  29.5122753  27.6934083  70.1956993  28.4382753  28.5374083
  70.4286993  29.1432753  28.2874083  59.8216993  19.4022753  19.0024083
  59.3106993  19.4552753  18.2964083  60.6056993  19.6422753  18.7064083
  59.8616993  19.4452753  18.8544083  64.5486993  26.9322753  26.9214083
  63.7016993  26.7382753  27.0024083  64.8726993  26.7672753  27.7144083
  64.4706993  26.8792753  27.0504083  61.3006993  33.6622753  17.8074083
  61.7396993  32.9652753  18.0954083  61.5076993  34.2862753  18.3804083
  61.3966993  33.6512753  17.9344083  58.3966993  26.6252753  29.2374083
  59.1186993  27.1132753  29.2004083  58.1266993  26.5952753  28.4084083
  58.4636993  26.6932753  29.1094083  61.6266993  21.7962753  25.9724083
  62.4726993  21.6062753  26.0704083  61.2566993  21.0192753  25.8344083
  61.6966993  21.6532753  25.9664083  56.4476993  23.1342753  22.6274083
  56.9366993  22.8422753  23.2884083  56.5766993  22.5412753  22.0004083
  56.5386993  23.0032753  22.6324083  60.9726993  24.5682753  18.1134083
  60.3626993  24.1632753  18.5874083  60.5866993  24.6862753  17.3404083
  60.8256993  24.5252753  18.0694083  57.7916993  27.6772753  33.5154083
  57.3706993  27.1592753  32.9544083  57.4396993  28.4632753  33.3724083
  57.6776993  27.7172753  33.4114083  62.4276993  23.0292753  20.8234083
  62.6996993  23.8552753  20.8904083  61.5646993  23.1042753  20.7274083
  62.3406993  23.1622753  20.8184083  70.4006993  20.1512753  35.4554083
  69.8756993  20.6102753  35.9794083  70.0396993  19.3562753  35.4494083
  70.2696993  20.1012753  35.5314083  55.9076993  18.9992753  27.3594083
  55.9516993  19.3432753  26.5584083  56.6626993  19.2362753  27.7264083
  56.0256993  19.0852753  27.2954083  68.8926993  23.7202753  35.5314083
  68.9656993  23.8242753  36.3944083  68.2586993  24.2782753  35.3104083
  68.8096993  23.8182753  35.6264083  70.4746993  30.4632753  19.4264083
  70.8086993  29.6572753  19.4614083  69.7196993  30.3912753  19.8564083
  70.4126993  30.3332753  19.4954083  70.9566993  22.2972753  25.0854083
  70.2116993  21.9742753  25.4034083  70.9586993  23.1232753  25.3654083
  70.8466993  22.3712753  25.1734083  67.8486993  28.3382753  18.8294083
  68.5326993  27.8242753  18.6604083  67.4316993  28.3842753  18.0644083
  67.8876993  28.2692753  18.6914083  62.5306993  29.4882753  30.1334083
  62.2326993  30.0802753  30.7004083  62.5856993  29.9302753  29.3844083
  62.4946993  29.6412753  30.1064083  60.5096993  28.4382753  33.5314083
  59.7036993  28.1482753  33.6984083  60.4206993  29.3062753  33.5374083
  60.3776993  28.5232753  33.5564083  69.8686993  18.6272753  32.5464083
  70.6126993  19.0792753  32.4834083  69.3026993  19.0972753  32.0774083
  69.8956993  18.7642753  32.4684083  65.0466993  25.9112753  29.6244083
  65.5226993  26.2852753  30.2524083  64.2236993  26.0452753  29.8834083
  64.9956993  25.9862753  29.7554083  61.7566993  21.5142753  32.3654083
  61.9176993  20.7702753  32.7924083  61.7116993  21.2652753  31.5304083
  61.7736993  21.3672753  32.3054083  64.3106993  33.3042753  24.8524083
  64.8566993  33.9832753  24.9064083  63.9606993  33.3862753  24.0574083
  64.3396993  33.4172753  24.7424083  63.5086993  17.3222753  32.2454083
  64.2136993  17.6422753  31.8434083  63.7496993  16.5152753  32.4724083
  63.6476993  17.2502753  32.2194083  62.4936993  31.5322753  28.2414083
  61.8696993  32.1142753  28.0594083  62.7416993  31.2462753  27.4554083
  62.4376993  31.5762753  28.0984083  66.8026993  28.1662753  35.2304083
  67.5596993  28.4522753  34.9044083  66.2556993  28.2182753  34.5524083
  66.8336993  28.2162753  35.0814083  70.7116993  30.7162753  33.7344083
  71.0576993  30.9862753  34.4884083  71.0056993  31.2982753  33.1544083
  70.8066993  30.8422753  33.7604083  64.0876993  26.3082753  18.1564083
  63.2826993  26.1312753  17.8714083  64.0546993  27.1592753  18.3484083
  63.9636993  26.4072753  18.1434083  60.0176993  22.3752753  28.3064083
  60.4576993  22.2722753  27.5604083  60.5626993  22.0622753  28.9114083
  60.1626993  22.3142753  28.2854083  68.0336993  21.4772753  33.8984083
  67.3856993  21.9472753  34.2464083  68.5986993  21.3882753  34.5574083
  68.0216993  21.5332753  34.0474083  67.7216993  23.0142753  30.1964083
  68.0236993  23.4342753  30.8994083  67.7576993  22.1742753  30.4284083
  67.7716993  22.9522753  30.3344083  65.1466993  33.1812753  34.1214083
  65.6246993  32.5812753  33.7054083  64.7956993  32.7382753  34.7864083
  65.1656993  33.0272753  34.1584083  70.2696993  22.4612753  22.4484083
  70.4766993  22.2602753  23.2724083  71.0256993  22.7292753  22.1064083
  70.4116993  22.4712753  22.5194083  63.5646993  17.3602753  28.3534083
  62.7386993  17.2112753  28.5904083  63.5246993  17.3952753  27.4824083
  63.4366993  17.3432753  28.2594083  65.2056993  28.4002753  33.1414083
  64.4106993  28.3362753  33.4924083  65.2766993  29.2472753  32.9464083
  65.0986993  28.5152753  33.1644083  56.1296993  17.7582753  34.3884083
  55.9896993  18.5532753  34.0574083  55.3436993  17.5152753  34.6774083
  55.9926993  17.8402753  34.3824083  61.0356993  34.6072753  28.4584083
  61.0466993  34.6662753  29.3284083  60.6106993  33.8602753  28.3084083
  60.9746993  34.5052753  28.5644083  59.1936993  20.5022753  21.6134083
  59.3196993  20.1732753  20.8154083  58.3816993  20.2532753  21.8124083
  59.0926993  20.4172753  21.5254083  67.9506993  27.6552753  24.6574083
  68.0266993  27.9962753  25.4564083  68.1196993  26.8082753  24.7784083
  67.9866993  27.5802753  24.7934083  65.4726993  26.9292753  24.2224083
  65.1746993  26.6142753  24.9794083  66.1676993  27.4022753  24.4574083
  65.5316993  26.9522753  24.3694083  65.6946993  31.0472753  32.2494083
  66.3816993  30.9332753  32.7744083  65.8286993  31.8382753  31.9054083
  65.8156993  31.1472753  32.2764083  68.3836993  24.3212753  32.6364083
  68.1286993  23.6022753  33.0584083  69.2046993  24.4372753  32.9064083
  68.4676993  24.2322753  32.7384083  57.7996993  34.1052753  33.9004083
  57.1456993  33.5362753  33.9984083  57.4246993  34.8782753  34.0514083
  57.6476993  34.1352753  33.9374083  66.3176993  25.5112753  35.8234083
  66.6406993  26.1972753  35.3914083  65.6136993  25.8342753  36.2254083
  66.2606993  25.6602753  35.8184083  69.4016993  33.8852753  26.7524083
  68.9506993  34.5282753  27.1314083  70.1096993  33.8062753  27.2574083
  69.4396993  33.9682753  26.8834083  66.1026993  28.9752753  29.6824083
  65.4086993  29.3772753  30.0254083  66.7796993  29.4082753  30.0214083
  66.0996993  29.0982753  29.7834083  59.1706993  22.5132753  32.0294083
  59.5456993  23.1322753  31.5424083  59.8446993  22.0392753  32.3144083
  59.3256993  22.5352753  31.9994083  56.9456993  20.9612753  31.3044083
  57.0226993  20.7922753  30.4514083  57.6916993  21.3672753  31.5014083
  57.0666993  20.9962753  31.2074083  59.4996993  18.3712753  33.7154083
  59.4186993  17.5272753  33.9214083  59.1856993  18.4152753  32.9024083
  59.4416993  18.2532753  33.6254083  66.4246993  30.5662753  22.8514083
  66.2196993  31.3992753  22.6924083  65.6496993  30.1842753  22.9734083
  66.2796993  30.6332753  22.8464083  56.3426993  26.1872753  31.5284083
  56.6626993  26.4062753  30.7474083  56.2426993  25.3222753  31.4734083
  56.3746993  26.0922753  31.4054083  57.7986993  22.1232753  18.1464083
  57.1266993  22.1372753  18.7024083  57.8936993  21.2752753  17.9624083
  57.7136993  22.0002753  18.2014083  67.4856993  18.5472753  34.8824083
  67.5776993  19.2592753  35.3764083  66.8486993  18.1022753  35.2794083
  67.4046993  18.5862753  35.0144083  66.4796993  18.7372753  25.7364083
  65.7796993  19.2552753  25.6804083  66.5176993  18.3572753  24.9524083
  66.3816993  18.7582753  25.6124083  61.7866993  30.8282753  19.2604083
  62.2276993  30.9082753  20.0084083  60.9816993  30.6122753  19.5184083
  61.7326993  30.8082753  19.4094083  70.0776993  19.2532753  28.5364083
  70.9326993  19.3522753  28.6814083  69.7086993  19.8062753  29.1014083
  70.1496993  19.3502753  28.6414083  61.1056993  25.4792753  32.9134083
  60.7096993  26.2532753  32.9884083  60.6996993  25.1062753  32.2374083
  60.9876993  25.5382753  32.8244083  70.3816993  24.5332753  27.0274083
  71.0476993  25.0742753  27.1874083  70.0366993  24.8442753  26.2884083
  70.4286993  24.6592753  26.9424083  59.1156993  29.8982753  19.8614083
  58.8716993  29.5912753  20.6414083  59.0826993  29.1952753  19.3454083
  59.0746993  29.7492753  19.9004083  61.9346993  28.1432753  18.6044083
  61.1166993  27.8752753  18.7444083  61.9066993  28.9952753  18.7894083
  61.8096993  28.2302753  18.6524083  61.5346993  18.4562753  30.3634083
  60.6706993  18.5402753  30.4434083  61.7546993  17.9422753  31.0324083
  61.4396993  18.3932753  30.4744083  65.6376993  19.2042753  28.7374083
  64.9006993  18.7502753  28.8504083  66.2086993  18.8022753  29.2604083
  65.6126993  19.0772753  28.8314083  68.3696993  30.0522753  30.5254083
  68.5756993  30.3532753  31.3174083  68.3086993  30.7742753  30.0404083
  68.3906993  30.2032753  30.5704083  67.9036993  34.2662753  34.7714083
  67.1506993  34.2482753  34.3304083  68.0716993  35.1182753  34.8554083
  67.8176993  34.3892753  34.7184083  63.1406993  23.5332753  33.9414083
  62.8186993  22.9572753  33.3714083  62.7816993  24.2882753  33.6954083
  63.0406993  23.5592753  33.8214083  63.9366993  16.7852753  18.5684083
  64.0146993  17.0322753  17.7354083  63.1936993  17.1622753  18.8264083
  63.8386993  16.8772753  18.4834083  61.5756993  33.8892753  34.1894083
  61.6166993  34.0152753  35.0524083  62.2266993  33.3292753  34.0334083
  61.6776993  33.8252753  34.2944083  58.7546993  18.5392753  31.0114083
  58.4116993  17.7722753  30.7774083  58.0596993  19.0632753  31.0754083
  58.6016993  18.5032753  30.9864083  67.8006993  17.3952753  27.9884083
  68.4706993  17.9392753  28.1154083  67.2976993  17.8192753  27.4154083
  67.8256993  17.5382753  27.9224083  59.1686993  32.2722753  35.5494083
  59.7636993  32.7032753  36.0214083  58.8046993  32.8962753  35.0604083
  59.2026993  32.4282753  35.5464083  67.1596993  23.2032753  25.4814083
  67.7106993  22.5962753  25.7814083  66.7346993  23.4662753  26.1964083
  67.1786993  23.1522753  25.6304083  57.4076993  21.8532753  24.9674083
  57.0396993  22.1552753  25.6984083  57.9416993  21.2242753  25.2514083
  57.4316993  21.8052753  25.1174083  57.0956993  30.2612753  32.4784083
  56.5216993  30.6772753  32.9874083  57.8286993  30.7262753  32.5734083
  57.1196993  30.3912753  32.5674083  69.1296993  25.0342753  22.0434083
  69.1976993  24.1842753  22.2244083  68.3066993  25.1202753  21.7654083
  69.0176993  24.9212753  22.0294083  58.8816993  33.5282753  21.2534083
  58.7366993  33.6842753  20.4074083  59.7476993  33.6072753  21.3314083
  58.9886993  33.5632753  21.1404083  63.0486993  25.9252753  20.9814083
  63.1486993  26.0642753  20.1264083  63.8666993  25.8652753  21.2774083
  63.1836993  25.9362753  20.8984083  68.2836993  30.2542753  20.7834083
  68.0326993  30.1262753  21.6094083  67.9666993  29.5592753  20.3624083
  68.1996993  30.1332753  20.8434083  62.1876993  18.9002753  34.0974083
  62.4216993  18.3242753  33.4844083  61.3456993  18.7192753  34.2384083
  62.0976993  18.7882753  34.0274083  69.8146993  26.5182753  36.5494083
  70.6856993  26.4822753  36.5134083  69.5956993  26.9382753  35.8174083
  69.9116993  26.5742753  36.4364083  59.5686993  32.3432753  27.7304083
  59.4896993  31.5332753  27.4144083  59.1246993  32.8302753  27.1584083
  59.4916993  32.2952753  27.5994083  65.1696993  28.4622753  20.2134083
  65.8866993  28.1152753  19.8574083  65.1356993  29.2622753  19.8654083
  65.2706993  28.5292753  20.1094083  57.1406993  34.5872753  31.3114083
  57.6336993  34.5312753  32.0294083  57.3286993  33.8542753  30.8764083
  57.2416993  34.4702753  31.3534083  66.5786993  17.1032753   4.4521673
  66.3336993  17.5912753   3.7721673  67.4416993  17.0302753   4.3521673
  66.6696993  17.1642753   4.3371673  66.3876993  24.0192753   9.1231673
  65.8636993  24.6152753   9.4861673  66.7846993  23.6512753   9.8071673
  66.3686993  24.0532753   9.2781673  56.2566993  28.1592753   4.5791673
  55.8156993  28.2772753   5.3221673  55.9736993  27.3842753   4.2941673
  56.1496993  28.0622753   4.6471673  69.0586993  25.0862753   5.7991673
  69.1386993  25.0902753   4.9301673  68.4746993  24.4542753   5.9481673
  68.9836993  24.9932753   5.6931673  58.7656993  28.8552753   3.6581673
  59.3736993  28.6852753   4.2611673  58.0146993  28.7152753   4.0791673
  58.7446993  28.8092753   3.8091673  63.0476993  18.1902753   3.6071673
  62.9776993  18.8672753   3.0611673  63.7886993  17.8022753   3.3581673
  63.1466993  18.2332753   3.4891673  56.1966993  30.8942753  10.8341673
  56.3256993  30.6142753  11.6501673  55.5866993  30.3532753  10.5251673
  56.1256993  30.7732753  10.9091673  62.7706993  28.4192753  15.9011673
  62.5346993  28.4162753  16.7411673  62.0226993  28.2712753  15.4771673
  62.6246993  28.3962753  15.9621673  57.6426993  25.4152753   5.0361673
  57.1806993  25.0232753   4.4091673  58.3426993  24.9022753   5.1281673
  57.6776993  25.2822753   4.9571673  62.1506993  21.0252753  10.3831673
  62.8286993  21.0432753   9.8341673  62.1056993  20.1892753  10.6281673
  62.2436993  20.9042753  10.3381673  62.7526993  31.6112753  13.1641673
  62.8906993  32.3712753  12.7571673  63.5436993  31.2462753  13.1911673
  62.8896993  31.6702753  13.1081673  59.6436993  23.5152753   5.0591673
  60.4606993  23.3282753   5.3021673  59.1666993  22.9012753   5.4551673
  59.6936993  23.3972753   5.1541673  63.8476993  29.4962753   7.6691673
  64.1956993  28.6972753   7.6991673  64.5126993  30.0002753   7.4141673
  63.9976993  29.4522753   7.6361673  63.9046993  28.9452753   3.8801673
  64.2356993  28.3012753   4.3661673  64.1446993  28.7342753   3.0691673
  63.9886993  28.8192753   3.8321673  65.8726993  23.0762753  15.2191673
  65.0246993  22.9772753  15.0411673  65.9016993  23.8212753  15.6731673
  65.7516993  23.1722753  15.2601673  60.2406993  18.6092753   4.3251673
  59.9446993  19.1102753   3.6751673  61.1076993  18.6872753   4.2681673
  60.3246993  18.6952753   4.2211673  70.4306993  16.0362753  14.3331673
  70.2726993  16.8052753  13.9511673  69.6586993  15.8162753  14.6771673
  70.2926993  16.1172753  14.3281673  63.2196993  17.7512753   6.5481673
  63.2926993  18.6112753   6.6771673  63.1816993  17.6762753   5.6801673
  63.2246993  17.8672753   6.4391673  56.0986993  23.1762753   8.0491673
  55.8426993  24.0072753   7.9741673  55.4346993  22.7932753   8.4661673
  55.9626993  23.2422753   8.1001673  56.0086993  32.8862753   5.9491673
  55.4166993  33.4442753   5.6361673  56.4346993  32.6172753   5.2371673
  55.9846993  32.9282753   5.7981673  61.8486993  30.7302753   3.4291673
  61.2696993  30.4552753   4.0211673  62.4726993  30.1212753   3.4541673
  61.8556993  30.6002753   3.5201673  66.1596993  33.4102753   2.9411673
  66.3736993  33.9372753   3.6031673  66.9266993  33.2362753   2.5621673
  66.3046993  33.4622753   2.9831673  59.1276993  17.9932753   8.5401673
  58.6066993  17.3652753   8.2321673  59.7186993  17.5562753   9.0111673
  59.1386993  17.8352753   8.5641673  62.4336993  20.1262753  17.8381673
  62.5506993  19.6722753  17.1021673  62.7216993  20.9242753  17.6351673
  62.4936993  20.1772753  17.6991673  57.5536993  31.5562753   3.8801673
  58.2096993  30.9812753   3.8951673  57.9426993  32.3052753   3.6591673
  57.7086993  31.5812753   3.8501673  68.5986993  33.4202753  11.2461673
  69.3426993  33.8762753  11.2361673  68.4776993  33.2062753  10.4091673
  68.6906993  33.4562753  11.1211673  58.1666993  19.7232753  16.8221673
  57.3886993  19.3332753  16.7501673  58.6576993  19.3112753  16.2311673
  58.1236993  19.6042753  16.7241673  58.3716993  30.0432753   7.3801673
  58.7946993  29.6872753   6.7061673  58.6956993  29.6212753   8.0721673
  58.4816993  29.9282753   7.3831673  61.6026993  32.8952753   6.6761673
  62.4466993  32.9992753   6.4811673  61.3056993  33.7132753   6.7441673
  61.6836993  33.0312753   6.6571673  64.8156993  17.3662753  15.9901673
  64.9936993  16.5572753  15.7151673  64.6726993  17.8072753  15.2511673
  64.8206993  17.3122753  15.8401673  65.4096993  22.2922753   4.7631673
  65.6966993  22.0602753   3.9731673  66.1416993  22.3712753   5.2321673
  65.5596993  22.2692753   4.7161673  60.6006993  34.1142753  12.4161673
  60.8926993  34.0472753  13.2361673  59.9746993  33.5092753  12.3711673
  60.5516993  34.0152753  12.5311673  55.5146993  20.2712753  14.4081673
  55.5106993  20.8582753  15.0541673  56.1086993  20.5832753  13.8511673
  55.6016993  20.4042753  14.4211673  67.8526993  30.6052753  14.9501673
  67.8186993  30.9872753  15.7341673  68.7066993  30.5632753  14.7791673
  67.9736993  30.6552753  15.0411673  56.4516993  19.8662753   3.3231673
  56.3376993  19.0022753   3.3541673  55.9766993  20.1602753   3.9931673
  56.3646993  19.7822753   3.4261673  58.5936993  32.2762753  11.5381673
  57.8956993  31.7682753  11.6641673  58.8536993  32.0712753  10.7301673
  58.5286993  32.1712753  11.4371673  65.7556993  21.0742753   2.0681673
  65.2476993  20.4122753   1.8141673  65.8076993  21.5782753   1.3581673
  65.6886993  21.0512753   1.9261673  66.3046993  33.7692753  12.4481673
  67.0726993  33.6892753  12.0421673  65.7216993  33.6482753  11.8101673
  66.3316993  33.7392753  12.2941673  65.7556993  18.0152753   1.9591673
  65.3006993  17.6132753   1.3331673  66.5286993  18.1702753   1.5841673
  65.8026993  17.9792753   1.8111673  64.3536993  20.3822753   6.4811673
  64.4276993  20.9502753   5.8231673  64.4746993  20.8742753   7.1911673
  64.3816993  20.5392753   6.4891673  69.5786993  30.2172753   4.8931673
  70.2796993  29.7352753   5.0821673  68.9186993  29.6482753   4.9381673
  69.5846993  30.0622753   4.9271673  59.9546993  31.1272753  14.1051673
  60.7956993  31.1902753  13.8831673  59.9176993  31.5242753  14.8811673
  60.0736993  31.1952753  14.1871673  58.9616993  16.2052753   4.8291673
  59.4976993  16.8932753   4.8191673  58.9646993  15.9312753   4.0011673
  59.0406993  16.2662753   4.7051673  61.9176993  26.6382753   8.8541673
  62.0896993  26.4282753   9.6831673  61.2626993  26.1042753   8.6381673
  61.8466993  26.5282753   8.9451673  68.1456993  20.5522753  12.3691673
  68.0506993  20.8712753  13.1751673  67.5526993  19.9132753  12.3311673
  68.0436993  20.5042753  12.4831673  62.6676993  26.5762753  11.4441673
  62.7206993  27.4232753  11.6461673  62.3826993  26.2062753  12.1811673
  62.6336993  26.6462753  11.5821673  68.8446993  27.2712753  10.5741673
  68.3306993  26.8592753  11.1451673  68.7186993  28.1152753  10.7551673
  68.7506993  27.3352753  10.6851673  69.4016993  16.4962753   5.2051673
  69.4506993  16.1782753   6.0161673  69.7246993  15.8522753   4.7121673
  69.4566993  16.3542753   5.2521673  55.4886993  30.9472753  17.6551673
  56.2446993  31.2962753  17.9131673  55.6656993  30.0942753  17.5981673
  55.6266993  30.8722753  17.6851673  59.4096993  20.0152753   6.4831673
  59.6816993  19.5852753   5.7751673  59.2336993  19.3792753   7.0541673
  59.4236993  19.8582753   6.4631673  59.2336993  27.4422753   6.0321673
  60.0846993  27.3622753   5.8591673  58.8766993  26.7602753   5.6201673
  59.3066993  27.3292753   5.9451673  58.0006993  34.1672753   7.2691673
  57.3276993  33.6692753   7.0241673  58.4036993  34.3522753   6.5181673
  57.9606993  34.1212753   7.1221673  57.5506993  21.1172753   9.5651673
  58.3936993  21.3372753   9.5221673  57.1616993  21.6902753   9.0341673
  57.6176993  21.2342753   9.4801673  61.6016993  27.4492753   4.2671673
  62.3146993  27.9442753   4.3571673  61.8236993  26.8822753   3.6411673
  61.7396993  27.4382753   4.1881673  55.7576993  29.0922753   7.5871673
  55.0906993  29.5802753   7.8631673  56.4376993  29.6372753   7.6161673
  55.7596993  29.2442753   7.6321673  63.4046993  22.8022753  17.6831673
  62.9206993  23.3792753  18.1251673  63.3766993  23.0972753  16.8621673
  63.3286993  22.9312753  17.6271673  55.8236993  25.7762753   2.6901673
  55.6386993  24.9372753   2.8421673  56.4826993  25.7402753   2.1201673
  55.8936993  25.6472753   2.6281673  66.1246993  31.1522753   6.5941673
  65.6016993  31.7862753   6.3011673  66.4346993  30.7882753   5.8651673
  66.0926993  31.1922753   6.4431673  55.9956993  29.9402753   2.2651673
  56.5476993  30.5092753   2.6291673  55.7636993  29.4252753   2.9301673
  56.0426993  29.9482753   2.4171673  60.1996993  28.9402753   9.3541673
  60.6666993  29.2292753  10.0321673  60.7716993  28.4622753   8.9001673
  60.3536993  28.9122753   9.3871673  68.6356993  20.9542753   7.0911673
  68.9796993  21.1062753   7.8781673  68.1826993  20.2162753   7.2041673
  68.6196993  20.8672753   7.2241673  56.7656993  26.6102753   7.8981673
  57.1966993  26.4812753   7.1511673  56.5606993  27.4582753   7.8721673
  56.7986993  26.7162753   7.7841673  60.8496993  30.1262753   6.1801673
  60.9756993  30.9692753   6.3671673  61.5176993  29.7272753   6.5761673
  60.9676993  30.1922753   6.2661673  58.9796993  23.6092753  16.0421673
  58.4436993  23.1032753  16.5101673  58.9996993  23.2192753  15.2621673
  58.9026993  23.4762753  15.9961673  59.6316993  24.8362753   7.7811673
  58.8506993  24.7772753   7.3981673  59.7036993  24.0842753   8.2181673
  59.5266993  24.7172753   7.7891673  60.0616993  24.5732753  11.2491673
  60.0866993  23.8982753  10.6981673  59.4156993  25.0692753  10.9371673
  59.9706993  24.5462753  11.1221673  69.9566993  22.2862753   9.6451673
  69.2946993  22.6142753  10.1081673  70.1436993  22.9202753   9.0761673
  69.8866993  22.4282753   9.6291673  64.1616993  33.3502753  10.6411673
  63.8846993  32.7092753  10.1181673  63.9536993  34.0762753  10.2031673
  64.0906993  33.3632753  10.4991673  66.6016993  18.1922753  13.0741673
  66.7506993  17.3672753  12.8311673  66.9806993  18.2472753  13.8581673
  66.6796993  18.0782753  13.1541673  68.1496993  20.2552753   3.1561673
  68.6396993  20.9722753   3.0791673  67.3596993  20.5162753   2.8931673
  68.1056993  20.3992753   3.1061673  57.8606993  25.9282753  16.8081673
  57.8236993  26.4292753  16.0941673  58.1916993  25.1762753  16.5131673
  57.9036993  25.8902753  16.6591673  69.4636993  28.1332753  15.0661673
  69.9476993  28.8512753  15.1641673  69.8576993  27.7062753  14.4151673
  69.5936993  28.1762753  14.9841673  63.7596993  30.9782753  16.2431673
  64.1136993  30.8002753  17.0201673  63.3236993  30.2492753  16.0441673
  63.7476993  30.8442753  16.3291673  64.7316993  21.7252753   8.8811673
  65.2116993  22.4242753   9.0891673  65.1046993  21.0782753   9.3321673
  64.8576993  21.7332753   8.9781673  67.9376993  31.8302753   8.9801673
  67.3346993  31.5342753   8.4231673  68.4826993  32.2822753   8.4711673
  67.9286993  31.8532753   8.8221673  67.9506993  28.6812753   8.3801673
  67.1536993  28.9052753   8.6541673  68.2086993  28.0872753   8.9651673
  67.8706993  28.6262753   8.5071673  61.8426993  33.4932753   2.8281673
  61.6956993  32.7172753   3.1991673  62.5316993  33.3462753   2.3131673
  61.9226993  33.3562753   2.8071673  67.4016993  32.0282753  17.5031673
  67.5656993  32.3112753  18.3121673  67.6646993  32.6892753  16.9981673
  67.4646993  32.1682753  17.5481673  58.6356993  25.5432753   2.0591673
  58.9596993  24.7642753   1.8371673  59.2816993  25.9112753   2.5141673
  58.7786993  25.4822753   2.0931673  66.9416993  26.4852753  12.8261673
  66.7866993  27.0952753  13.4301673  67.4756993  25.9272753  13.2321673
  66.9976993  26.4932753  12.9751673  55.6326993  17.2042753   3.0271673
  55.7616993  16.4962753   2.5351673  55.2656993  16.8862753   3.7521673
  55.5976993  17.0522753   3.0621673  65.3256993  24.8852753   3.4841673
  65.3846993  25.5352753   4.0631673  65.1366993  24.1892753   3.9751673
  65.3066993  24.8782753   3.6421673  70.5516993  29.2142753   9.3531673
  70.0726993  29.5122753   8.6871673  70.1956993  28.4382753   9.5311673
  70.4286993  29.1432753   9.2811673  64.5486993  26.9322753   7.9151673
  63.7016993  26.7382753   7.9961673  64.8726993  26.7672753   8.7081673
  64.4706993  26.8792753   8.0441673  58.3966993  26.6252753  10.2311673
  59.1186993  27.1132753  10.1941673  58.1266993  26.5952753   9.4021673
  58.4636993  26.6932753  10.1031673  61.6266993  21.7962753   6.9661673
  62.4726993  21.6062753   7.0641673  61.2566993  21.0192753   6.8281673
  61.6966993  21.6532753   6.9601673  56.4476993  23.1342753   3.6211673
  56.9366993  22.8422753   4.2821673  56.5766993  22.5412753   2.9941673
  56.5386993  23.0032753   3.6261673  57.7916993  27.6772753  14.5091673
  57.3706993  27.1592753  13.9481673  57.4396993  28.4632753  14.3661673
  57.6776993  27.7172753  14.4051673  62.4276993  23.0292753   1.8171673
  62.6996993  23.8552753   1.8841673  61.5646993  23.1042753   1.7211673
  62.3406993  23.1622753   1.8121673  70.4006993  20.1512753  16.4491673
  69.8756993  20.6102753  16.9731673  70.0396993  19.3562753  16.4431673
  70.2696993  20.1012753  16.5251673  55.9076993  18.9992753   8.3531673
  55.9516993  19.3432753   7.5521673  56.6626993  19.2362753   8.7201673
  56.0256993  19.0852753   8.2891673  68.8926993  23.7202753  16.5251673
  68.9656993  23.8242753  17.3881673  68.2586993  24.2782753  16.3041673
  68.8096993  23.8182753  16.6201673  70.9566993  22.2972753   6.0791673
  70.2116993  21.9742753   6.3971673  70.9586993  23.1232753   6.3591673
  70.8466993  22.3712753   6.1671673  62.5306993  29.4882753  11.1271673
  62.2326993  30.0802753  11.6941673  62.5856993  29.9302753  10.3781673
  62.4946993  29.6412753  11.1001673  60.5096993  28.4382753  14.5251673
  59.7036993  28.1482753  14.6921673  60.4206993  29.3062753  14.5311673
  60.3776993  28.5232753  14.5501673  69.8686993  18.6272753  13.5401673
  70.6126993  19.0792753  13.4771673  69.3026993  19.0972753  13.0711673
  69.8956993  18.7642753  13.4621673  65.0466993  25.9112753  10.6181673
  65.5226993  26.2852753  11.2461673  64.2236993  26.0452753  10.8771673
  64.9956993  25.9862753  10.7491673  61.7566993  21.5142753  13.3591673
  61.9176993  20.7702753  13.7861673  61.7116993  21.2652753  12.5241673
  61.7736993  21.3672753  13.2991673  64.3106993  33.3042753   5.8461673
  64.8566993  33.9832753   5.9001673  63.9606993  33.3862753   5.0511673
  64.3396993  33.4172753   5.7361673  63.5086993  17.3222753  13.2391673
  64.2136993  17.6422753  12.8371673  63.7496993  16.5152753  13.4661673
  63.6476993  17.2502753  13.2131673  62.4936993  31.5322753   9.2351673
  61.8696993  32.1142753   9.0531673  62.7416993  31.2462753   8.4491673
  62.4376993  31.5762753   9.0921673  66.8026993  28.1662753  16.2241673
  67.5596993  28.4522753  15.8981673  66.2556993  28.2182753  15.5461673
  66.8336993  28.2162753  16.0751673  70.7116993  30.7162753  14.7281673
  71.0576993  30.9862753  15.4821673  71.0056993  31.2982753  14.1481673
  70.8066993  30.8422753  14.7541673  60.0176993  22.3752753   9.3001673
  60.4576993  22.2722753   8.5541673  60.5626993  22.0622753   9.9051673
  60.1626993  22.3142753   9.2791673  68.0336993  21.4772753  14.8921673
  67.3856993  21.9472753  15.2401673  68.5986993  21.3882753  15.5511673
  68.0216993  21.5332753  15.0411673  67.7216993  23.0142753  11.1901673
  68.0236993  23.4342753  11.8931673  67.7576993  22.1742753  11.4221673
  67.7716993  22.9522753  11.3281673  65.1466993  33.1812753  15.1151673
  65.6246993  32.5812753  14.6991673  64.7956993  32.7382753  15.7801673
  65.1656993  33.0272753  15.1521673  70.2696993  22.4612753   3.4421673
  70.4766993  22.2602753   4.2661673  71.0256993  22.7292753   3.1001673
  70.4116993  22.4712753   3.5131673  63.5646993  17.3602753   9.3471673
  62.7386993  17.2112753   9.5841673  63.5246993  17.3952753   8.4761673
  63.4366993  17.3432753   9.2531673  65.2056993  28.4002753  14.1351673
  64.4106993  28.3362753  14.4861673  65.2766993  29.2472753  13.9401673
  65.0986993  28.5152753  14.1581673  56.1296993  17.7582753  15.3821673
  55.9896993  18.5532753  15.0511673  55.3436993  17.5152753  15.6711673
  55.9926993  17.8402753  15.3761673  61.0356993  34.6072753   9.4521673
  61.0466993  34.6662753  10.3221673  60.6106993  33.8602753   9.3021673
  60.9746993  34.5052753   9.5581673  59.1936993  20.5022753   2.6071673
  59.3196993  20.1732753   1.8091673  58.3816993  20.2532753   2.8061673
  59.0926993  20.4172753   2.5191673  67.9506993  27.6552753   5.6511673
  68.0266993  27.9962753   6.4501673  68.1196993  26.8082753   5.7721673
  67.9866993  27.5802753   5.7871673  65.4726993  26.9292753   5.2161673
  65.1746993  26.6142753   5.9731673  66.1676993  27.4022753   5.4511673
  65.5316993  26.9522753   5.3631673  65.6946993  31.0472753  13.2431673
  66.3816993  30.9332753  13.7681673  65.8286993  31.8382753  12.8991673
  65.8156993  31.1472753  13.2701673  68.3836993  24.3212753  13.6301673
  68.1286993  23.6022753  14.0521673  69.2046993  24.4372753  13.9001673
  68.4676993  24.2322753  13.7321673  57.7996993  34.1052753  14.8941673
  57.1456993  33.5362753  14.9921673  57.4246993  34.8782753  15.0451673
  57.6476993  34.1352753  14.9311673  66.3176993  25.5112753  16.8171673
  66.6406993  26.1972753  16.3851673  65.6136993  25.8342753  17.2191673
  66.2606993  25.6602753  16.8121673  69.4016993  33.8852753   7.7461673
  68.9506993  34.5282753   8.1251673  70.1096993  33.8062753   8.2511673
  69.4396993  33.9682753   7.8771673  66.1026993  28.9752753  10.6761673
  65.4086993  29.3772753  11.0191673  66.7796993  29.4082753  11.0151673
  66.0996993  29.0982753  10.7771673  59.1706993  22.5132753  13.0231673
  59.5456993  23.1322753  12.5361673  59.8446993  22.0392753  13.3081673
  59.3256993  22.5352753  12.9931673  56.9456993  20.9612753  12.2981673
  57.0226993  20.7922753  11.4451673  57.6916993  21.3672753  12.4951673
  57.0666993  20.9962753  12.2011673  59.4996993  18.3712753  14.7091673
  59.4186993  17.5272753  14.9151673  59.1856993  18.4152753  13.8961673
  59.4416993  18.2532753  14.6191673  66.4246993  30.5662753   3.8451673
  66.2196993  31.3992753   3.6861673  65.6496993  30.1842753   3.9671673
  66.2796993  30.6332753   3.8401673  56.3426993  26.1872753  12.5221673
  56.6626993  26.4062753  11.7411673  56.2426993  25.3222753  12.4671673
  56.3746993  26.0922753  12.3991673  67.4856993  18.5472753  15.8761673
  67.5776993  19.2592753  16.3701673  66.8486993  18.1022753  16.2731673
  67.4046993  18.5862753  16.0081673  66.4796993  18.7372753   6.7301673
  65.7796993  19.2552753   6.6741673  66.5176993  18.3572753   5.9461673
  66.3816993  18.7582753   6.6061673  70.0776993  19.2532753   9.5301673
  70.9326993  19.3522753   9.6751673  69.7086993  19.8062753  10.0951673
  70.1496993  19.3502753   9.6351673  61.1056993  25.4792753  13.9071673
  60.7096993  26.2532753  13.9821673  60.6996993  25.1062753  13.2311673
  60.9876993  25.5382753  13.8181673  70.3816993  24.5332753   8.0211673
  71.0476993  25.0742753   8.1811673  70.0366993  24.8442753   7.2821673
  70.4286993  24.6592753   7.9361673  61.5346993  18.4562753  11.3571673
  60.6706993  18.5402753  11.4371673  61.7546993  17.9422753  12.0261673
  61.4396993  18.3932753  11.4681673  65.6376993  19.2042753   9.7311673
  64.9006993  18.7502753   9.8441673  66.2086993  18.8022753  10.2541673
  65.6126993  19.0772753   9.8251673  68.3696993  30.0522753  11.5191673
  68.5756993  30.3532753  12.3111673  68.3086993  30.7742753  11.0341673
  68.3906993  30.2032753  11.5641673  67.9036993  34.2662753  15.7651673
  67.1506993  34.2482753  15.3241673  68.0716993  35.1182753  15.8491673
  67.8176993  34.3892753  15.7121673  63.1406993  23.5332753  14.9351673
  62.8186993  22.9572753  14.3651673  62.7816993  24.2882753  14.6891673
  63.0406993  23.5592753  14.8151673  61.5756993  33.8892753  15.1831673
  61.6166993  34.0152753  16.0461673  62.2266993  33.3292753  15.0271673
  61.6776993  33.8252753  15.2881673  58.7546993  18.5392753  12.0051673
  58.4116993  17.7722753  11.7711673  58.0596993  19.0632753  12.0691673
  58.6016993  18.5032753  11.9801673  67.8006993  17.3952753   8.9821673
  68.4706993  17.9392753   9.1091673  67.2976993  17.8192753   8.4091673
  67.8256993  17.5382753   8.9161673  59.1686993  32.2722753  16.5431673
  59.7636993  32.7032753  17.0151673  58.8046993  32.8962753  16.0541673
  59.2026993  32.4282753  16.5401673  67.1596993  23.2032753   6.4751673
  67.7106993  22.5962753   6.7751673  66.7346993  23.4662753   7.1901673
  67.1786993  23.1522753   6.6241673  57.4076993  21.8532753   5.9611673
  57.0396993  22.1552753   6.6921673  57.9416993  21.2242753   6.2451673
  57.4316993  21.8052753   6.1111673  57.0956993  30.2612753  13.4721673
  56.5216993  30.6772753  13.9811673  57.8286993  30.7262753  13.5671673
  57.1196993  30.3912753  13.5611673  69.1296993  25.0342753   3.0371673
  69.1976993  24.1842753   3.2181673  68.3066993  25.1202753   2.7591673
  69.0176993  24.9212753   3.0231673  58.8816993  33.5282753   2.2471673
  58.7366993  33.6842753   1.4011673  59.7476993  33.6072753   2.3251673
  58.9886993  33.5632753   2.1341673  68.2836993  30.2542753   1.7771673
  68.0326993  30.1262753   2.6031673  67.9666993  29.5592753   1.3561673
  68.1996993  30.1332753   1.8371673  62.1876993  18.9002753  15.0911673
  62.4216993  18.3242753  14.4781673  61.3456993  18.7192753  15.2321673
  62.0976993  18.7882753  15.0211673  69.8146993  26.5182753  17.5431673
  70.6856993  26.4822753  17.5071673  69.5956993  26.9382753  16.8111673
  69.9116993  26.5742753  17.4301673  59.5686993  32.3432753   8.7241673
  59.4896993  31.5332753   8.4081673  59.1246993  32.8302753   8.1521673
  59.4916993  32.2952753   8.5931673  57.1406993  34.5872753  12.3051673
  57.6336993  34.5312753  13.0231673  57.3286993  33.8542753  11.8701673
  57.2416993  34.4702753  12.3471673  66.3876993   5.5411673  85.1481313
  65.8636993   6.1371673  85.5111313  66.7846993   5.1731673  85.8321313
  66.3686993   5.5751673  85.3031313  56.2566993   9.6811673  80.6041313
  55.8156993   9.7991673  81.3471313  55.9736993   8.9061673  80.3191313
  56.1496993   9.5841673  80.6721313  55.9996993   3.4731673  77.1111313
  55.2216993   3.6351673  76.7511313  56.0386993   2.6021673  77.1331313
  55.8906993   3.3681673  77.0611313  59.1386993   8.7361673  75.7831313
  58.7466993   8.3651673  75.0971313  59.0586993   8.1381673  76.4121313
  59.0686993   8.5931673  75.7741313  69.0586993   6.6081673  81.8241313
  69.1386993   6.6121673  80.9551313  68.4746993   5.9761673  81.9731313
  68.9836993   6.5151673  81.7181313  58.7656993  10.3771673  79.6831313
  59.3736993  10.2071673  80.2861313  58.0146993  10.2371673  80.1041313
  58.7446993  10.3311673  79.8341313  57.6566993  13.4681673  75.7601313
  58.1236993  13.5521673  75.0281313  58.1116993  12.8901673  76.2291313
  57.7926993  13.3951673  75.7211313  56.1966993  12.4161673  86.8591313
  56.3256993  12.1361673  87.6751313  55.5866993  11.8751673  86.5501313
  56.1256993  12.2951673  86.9341313  57.6426993   6.9371673  81.0611313
  57.1806993   6.5451673  80.4341313  58.3426993   6.4241673  81.1531313
  57.6776993   6.8041673  80.9821313  62.7526993  13.1331673  89.1891313
  62.8906993  13.8931673  88.7821313  63.5436993  12.7681673  89.2161313
  62.8896993  13.1921673  89.1331313  59.6436993   5.0371673  81.0841313
  60.4606993   4.8501673  81.3271313  59.1666993   4.4231673  81.4801313
  59.6936993   4.9191673  81.1791313  63.8476993  11.0181673  83.6941313
  64.1956993  10.2191673  83.7241313  64.5126993  11.5221673  83.4391313
  63.9976993  10.9741673  83.6611313  63.9046993  10.4671673  79.9051313
  64.2356993   9.8231673  80.3911313  64.1446993  10.2561673  79.0941313
  63.9886993  10.3411673  79.8571313  56.0986993   4.6981673  84.0741313
  55.8426993   5.5291673  83.9991313  55.4346993   4.3151673  84.4911313
  55.9626993   4.7641673  84.1251313  56.0086993  14.4081673  81.9741313
  55.4166993  14.9661673  81.6611313  56.4346993  14.1391673  81.2621313
  55.9846993  14.4501673  81.8231313  61.8486993  12.2521673  79.4541313
  61.2696993  11.9771673  80.0461313  62.4726993  11.6431673  79.4791313
  61.8556993  12.1221673  79.5451313  67.9916993  14.5401673  76.9761313
  68.7186993  15.0121673  77.0781313  68.2206993  13.7461673  77.2561313
  68.1336993  14.4931673  77.0331313  66.1596993  14.9321673  78.9661313
  66.3736993  15.4591673  79.6281313  66.9266993  14.7581673  78.5871313
  66.3046993  14.9841673  79.0081313  57.5536993  13.0781673  79.9051313
  58.2096993  12.5031673  79.9201313  57.9426993  13.8271673  79.6841313
  57.7086993  13.1031673  79.8751313  68.5986993  14.9421673  87.2711313
  69.3426993  15.3981673  87.2611313  68.4776993  14.7281673  86.4341313
  68.6906993  14.9781673  87.1461313  58.3716993  11.5651673  83.4051313
  58.7946993  11.2091673  82.7311313  58.6956993  11.1431673  84.0971313
  58.4816993  11.4501673  83.4081313  61.6026993  14.4171673  82.7011313
  62.4466993  14.5211673  82.5061313  61.3056993  15.2351673  82.7691313
  61.6836993  14.5531673  82.6821313  65.4096993   3.8141673  80.7881313
  65.6966993   3.5821673  79.9981313  66.1416993   3.8931673  81.2571313
  65.5596993   3.7911673  80.7411313  66.1316993   4.1531673  75.9091313
  66.4126993   4.9411673  76.1581313  65.3556993   4.3181673  75.5461313
  66.0586993   4.2941673  75.8921313  70.1726993  16.1271673  77.3761313
  70.8376993  15.9791673  76.8311313  70.5326993  16.0441673  78.1661313
  70.3246993  16.0931673  77.4121313  60.6006993  15.6361673  88.4411313
  60.8926993  15.5691673  89.2611313  59.9746993  15.0311673  88.3961313
  60.5516993  15.5371673  88.5561313  55.5146993   1.7931673  90.4331313
  55.5106993   2.3801673  91.0791313  56.1086993   2.1051673  89.8761313
  55.6016993   1.9261673  90.4461313  64.9906993  12.3241673  75.7251313
  64.8096993  12.8691673  76.3821313  65.7566993  12.6141673  75.4241313
  65.0766993  12.4481673  75.7781313  58.5936993  13.7981673  87.5631313
  57.8956993  13.2901673  87.6891313  58.8536993  13.5931673  86.7551313
  58.5286993  13.6931673  87.4621313  65.7556993   2.5961673  78.0931313
  65.2476993   1.9341673  77.8391313  65.8076993   3.1001673  77.3831313
  65.6886993   2.5731673  77.9511313  66.3046993  15.2911673  88.4731313
  67.0726993  15.2111673  88.0671313  65.7216993  15.1701673  87.8351313
  66.3316993  15.2611673  88.3191313  64.3536993   1.9041673  82.5061313
  64.4276993   2.4721673  81.8481313  64.4746993   2.3961673  83.2161313
  64.3816993   2.0611673  82.5141313  69.5786993  11.7391673  80.9181313
  70.2796993  11.2571673  81.1071313  68.9186993  11.1701673  80.9631313
  69.5846993  11.5841673  80.9521313  59.9546993  12.6491673  90.1301313
  60.7956993  12.7121673  89.9081313  59.9176993  13.0461673  90.9061313
  60.0736993  12.7171673  90.2121313  61.9176993   8.1601673  84.8791313
  62.0896993   7.9501673  85.7081313  61.2626993   7.6261673  84.6631313
  61.8466993   8.0501673  84.9701313  62.6676993   8.0981673  87.4691313
  62.7206993   8.9451673  87.6711313  62.3826993   7.7281673  88.2061313
  62.6336993   8.1681673  87.6071313  68.8446993   8.7931673  86.5991313
  68.3306993   8.3811673  87.1701313  68.7186993   9.6371673  86.7801313
  68.7506993   8.8571673  86.7101313  59.2336993   8.9641673  82.0571313
  60.0846993   8.8841673  81.8841313  58.8766993   8.2821673  81.6451313
  59.3066993   8.8511673  81.9701313  58.0006993  15.6891673  83.2941313
  57.3276993  15.1911673  83.0491313  58.4036993  15.8741673  82.5431313
  57.9606993  15.6431673  83.1471313  57.5506993   2.6391673  85.5901313
  58.3936993   2.8591673  85.5471313  57.1616993   3.2121673  85.0591313
  57.6176993   2.7561673  85.5051313  69.9926993   5.7691673  76.3111313
  69.7726993   6.5001673  75.8891313  69.5446993   5.8201673  77.0581313
  69.8936993   5.8841673  76.3591313  61.6016993   8.9711673  80.2921313
  62.3146993   9.4661673  80.3821313  61.8236993   8.4041673  79.6661313
  61.7396993   8.9601673  80.2131313  55.7576993  10.6141673  83.6121313
  55.0906993  11.1021673  83.8881313  56.4376993  11.1591673  83.6411313
  55.7596993  10.7661673  83.6571313  55.8236993   7.2981673  78.7151313
  55.6386993   6.4591673  78.8671313  56.4826993   7.2621673  78.1451313
  55.8936993   7.1691673  78.6531313  66.1246993  12.6741673  82.6191313
  65.6016993  13.3081673  82.3261313  66.4346993  12.3101673  81.8901313
  66.0926993  12.7141673  82.4681313  55.9956993  11.4621673  78.2901313
  56.5476993  12.0311673  78.6541313  55.7636993  10.9471673  78.9551313
  56.0426993  11.4701673  78.4421313  60.1996993  10.4621673  85.3791313
  60.6666993  10.7511673  86.0571313  60.7716993   9.9841673  84.9251313
  60.3536993  10.4341673  85.4121313  55.8256993   9.9111673  75.9181313
  56.5816993   9.4791673  75.9761313  55.8406993  10.4431673  76.6091313
  55.9396993   9.9261673  76.0291313  56.7656993   8.1321673  83.9231313
  57.1966993   8.0031673  83.1761313  56.5606993   8.9801673  83.8971313
  56.7986993   8.2381673  83.8091313  60.8496993  11.6481673  82.2051313
  60.9756993  12.4911673  82.3921313  61.5176993  11.2491673  82.6011313
  60.9676993  11.7141673  82.2911313  59.4646993   4.5281673  77.2071313
  59.3366993   4.0801673  77.9451313  58.8826993   4.1861673  76.6551313
  59.3596993   4.4111673  77.2351313  59.6316993   6.3581673  83.8061313
  58.8506993   6.2991673  83.4231313  59.7036993   5.6061673  84.2431313
  59.5266993   6.2391673  83.8141313  60.0616993   6.0951673  87.2741313
  60.0866993   5.4201673  86.7231313  59.4156993   6.5911673  86.9621313
  59.9706993   6.0681673  87.1471313  69.9566993   3.8081673  85.6701313
  69.2946993   4.1361673  86.1331313  70.1436993   4.4421673  85.1011313
  69.8866993   3.9501673  85.6541313  64.1616993  14.8721673  86.6661313
  63.8846993  14.2311673  86.1431313  63.9536993  15.5981673  86.2281313
  64.0906993  14.8851673  86.5241313  68.1496993   1.7771673  79.1811313
  68.6396993   2.4941673  79.1041313  67.3596993   2.0381673  78.9181313
  68.1056993   1.9211673  79.1311313  69.4636993   9.6551673  91.0911313
  69.9476993  10.3731673  91.1891313  69.8576993   9.2281673  90.4401313
  69.5936993   9.6981673  91.0091313  64.7316993   3.2471673  84.9061313
  65.2116993   3.9461673  85.1141313  65.1046993   2.6001673  85.3571313
  64.8576993   3.2551673  85.0031313  66.9206993   6.4161673  77.1801313
  66.9126993   7.1381673  76.6901313  66.2816993   6.5511673  77.7571313
  66.8256993   6.5431673  77.1931313  67.9376993  13.3521673  85.0051313
  67.3346993  13.0561673  84.4481313  68.4826993  13.8041673  84.4961313
  67.9286993  13.3751673  84.8471313  67.9506993  10.2031673  84.4051313
  67.1536993  10.4271673  84.6791313  68.2086993   9.6091673  84.9901313
  67.8706993  10.1481673  84.5321313  61.8426993  15.0151673  78.8531313
  61.6956993  14.2391673  79.2241313  62.5316993  14.8681673  78.3381313
  61.9226993  14.8781673  78.8321313  64.1346993  14.5311673  77.2551313
  64.7566993  14.6941673  77.8451313  64.1706993  15.2221673  76.7231313
  64.2316993  14.6571673  77.2641313  58.6356993   7.0651673  78.0841313
  58.9596993   6.2861673  77.8621313  59.2816993   7.4331673  78.5391313
  58.7786993   7.0041673  78.1181313  66.9416993   8.0071673  88.8511313
  66.7866993   8.6171673  89.4551313  67.4756993   7.4491673  89.2571313
  66.9976993   8.0151673  89.0001313  65.3256993   6.4071673  79.5091313
  65.3846993   7.0571673  80.0881313  65.1366993   5.7111673  80.0001313
  65.3066993   6.4001673  79.6671313  70.5516993  10.7361673  85.3781313
  70.0726993  11.0341673  84.7121313  70.1956993   9.9601673  85.5561313
  70.4286993  10.6651673  85.3061313  64.5486993   8.4541673  83.9401313
  63.7016993   8.2601673  84.0211313  64.8726993   8.2891673  84.7331313
  64.4706993   8.4011673  84.0691313  61.3006993  15.1841673  74.8261313
  61.7396993  14.4871673  75.1141313  61.5076993  15.8081673  75.3991313
  61.3966993  15.1731673  74.9531313  58.3966993   8.1471673  86.2561313
  59.1186993   8.6351673  86.2191313  58.1266993   8.1171673  85.4271313
  58.4636993   8.2151673  86.1281313  61.6266993   3.3181673  82.9911313
  62.4726993   3.1281673  83.0891313  61.2566993   2.5411673  82.8531313
  61.6966993   3.1751673  82.9851313  56.4476993   4.6561673  79.6461313
  56.9366993   4.3641673  80.3071313  56.5766993   4.0631673  79.0191313
  56.5386993   4.5251673  79.6511313  60.9726993   6.0901673  75.1321313
  60.3626993   5.6851673  75.6061313  60.5866993   6.2081673  74.3591313
  60.8256993   6.0471673  75.0881313  57.7916993   9.1991673  90.5341313
  57.3706993   8.6811673  89.9731313  57.4396993   9.9851673  90.3911313
  57.6776993   9.2391673  90.4301313  62.4276993   4.5511673  77.8421313
  62.6996993   5.3771673  77.9091313  61.5646993   4.6261673  77.7461313
  62.3406993   4.6841673  77.8371313  70.4746993  11.9851673  76.4451313
  70.8086993  11.1791673  76.4801313  69.7196993  11.9131673  76.8751313
  70.4126993  11.8551673  76.5141313  70.9566993   3.8191673  82.1041313
  70.2116993   3.4961673  82.4221313  70.9586993   4.6451673  82.3841313
  70.8466993   3.8931673  82.1921313  67.8486993   9.8601673  75.8481313
  68.5326993   9.3461673  75.6791313  67.4316993   9.9061673  75.0831313
  67.8876993   9.7911673  75.7101313  62.5306993  11.0101673  87.1521313
  62.2326993  11.6021673  87.7191313  62.5856993  11.4521673  86.4031313
  62.4946993  11.1631673  87.1251313  60.5096993   9.9601673  90.5501313
  59.7036993   9.6701673  90.7171313  60.4206993  10.8281673  90.5561313
  60.3776993  10.0451673  90.5751313  65.0466993   7.4331673  86.6431313
  65.5226993   7.8071673  87.2711313  64.2236993   7.5671673  86.9021313
  64.9956993   7.5081673  86.7741313  61.7566993   3.0361673  89.3841313
  61.9176993   2.2921673  89.8111313  61.7116993   2.7871673  88.5491313
  61.7736993   2.8891673  89.3241313  64.3106993  14.8261673  81.8711313
  64.8566993  15.5051673  81.9251313  63.9606993  14.9081673  81.0761313
  64.3396993  14.9391673  81.7611313  62.4936993  13.0541673  85.2601313
  61.8696993  13.6361673  85.0781313  62.7416993  12.7681673  84.4741313
  62.4376993  13.0981673  85.1171313  64.0876993   7.8301673  75.1751313
  63.2826993   7.6531673  74.8901313  64.0546993   8.6811673  75.3671313
  63.9636993   7.9291673  75.1621313  60.0176993   3.8971673  85.3251313
  60.4576993   3.7941673  84.5791313  60.5626993   3.5841673  85.9301313
  60.1626993   3.8361673  85.3041313  67.7216993   4.5361673  87.2151313
  68.0236993   4.9561673  87.9181313  67.7576993   3.6961673  87.4471313
  67.7716993   4.4741673  87.3531313  70.2696993   3.9831673  79.4671313
  70.4766993   3.7821673  80.2911313  71.0256993   4.2511673  79.1251313
  70.4116993   3.9931673  79.5381313  65.2056993   9.9221673  90.1601313
  64.4106993   9.8581673  90.5111313  65.2766993  10.7691673  89.9651313
  65.0986993  10.0371673  90.1831313  61.0356993  16.1291673  85.4771313
  61.0466993  16.1881673  86.3471313  60.6106993  15.3821673  85.3271313
  60.9746993  16.0271673  85.5831313  67.9506993   9.1771673  81.6761313
  68.0266993   9.5181673  82.4751313  68.1196993   8.3301673  81.7971313
  67.9866993   9.1021673  81.8121313  65.4726993   8.4511673  81.2411313
  65.1746993   8.1361673  81.9981313  66.1676993   8.9241673  81.4761313
  65.5316993   8.4741673  81.3881313  65.6946993  12.5691673  89.2681313
  66.3816993  12.4551673  89.7931313  65.8286993  13.3601673  88.9241313
  65.8156993  12.6691673  89.2951313  68.3836993   5.8431673  89.6551313
  68.1286993   5.1241673  90.0771313  69.2046993   5.9591673  89.9251313
  68.4676993   5.7541673  89.7571313  57.7996993  15.6271673  90.9191313
  57.1456993  15.0581673  91.0171313  57.4246993  16.4001673  91.0701313
  57.6476993  15.6571673  90.9561313  69.4016993  15.4071673  83.7711313
  68.9506993  16.0501673  84.1501313  70.1096993  15.3281673  84.2761313
  69.4396993  15.4901673  83.9021313  66.1026993  10.4971673  86.7011313
  65.4086993  10.8991673  87.0441313  66.7796993  10.9301673  87.0401313
  66.0996993  10.6201673  86.8021313  59.1706993   4.0351673  89.0481313
  59.5456993   4.6541673  88.5611313  59.8446993   3.5611673  89.3331313
  59.3256993   4.0571673  89.0181313  56.9456993   2.4831673  88.3231313
  57.0226993   2.3141673  87.4701313  57.6916993   2.8891673  88.5201313
  57.0666993   2.5181673  88.2261313  66.4246993  12.0881673  79.8701313
  66.2196993  12.9211673  79.7111313  65.6496993  11.7061673  79.9921313
  66.2796993  12.1551673  79.8651313  56.3426993   7.7091673  88.5471313
  56.6626993   7.9281673  87.7661313  56.2426993   6.8441673  88.4921313
  56.3746993   7.6141673  88.4241313  57.7986993   3.6451673  75.1651313
  57.1266993   3.6591673  75.7211313  57.8936993   2.7971673  74.9811313
  57.7136993   3.5221673  75.2201313  61.7866993  12.3501673  76.2791313
  62.2276993  12.4301673  77.0271313  60.9816993  12.1341673  76.5371313
  61.7326993  12.3301673  76.4281313  61.1056993   7.0011673  89.9321313
  60.7096993   7.7751673  90.0071313  60.6996993   6.6281673  89.2561313
  60.9876993   7.0601673  89.8431313  70.3816993   6.0551673  84.0461313
  71.0476993   6.5961673  84.2061313  70.0366993   6.3661673  83.3071313
  70.4286993   6.1811673  83.9611313  59.1156993  11.4201673  76.8801313
  58.8716993  11.1131673  77.6601313  59.0826993  10.7171673  76.3641313
  59.0746993  11.2711673  76.9191313  61.9346993   9.6651673  75.6231313
  61.1166993   9.3971673  75.7631313  61.9066993  10.5171673  75.8081313
  61.8096993   9.7521673  75.6711313  68.3696993  11.5741673  87.5441313
  68.5756993  11.8751673  88.3361313  68.3086993  12.2961673  87.0591313
  68.3906993  11.7251673  87.5891313  63.1406993   5.0551673  90.9601313
  62.8186993   4.4791673  90.3901313  62.7816993   5.8101673  90.7141313
  63.0406993   5.0811673  90.8401313  67.1596993   4.7251673  82.5001313
  67.7106993   4.1181673  82.8001313  66.7346993   4.9881673  83.2151313
  67.1786993   4.6741673  82.6491313  57.4076993   3.3751673  81.9861313
  57.0396993   3.6771673  82.7171313  57.9416993   2.7461673  82.2701313
  57.4316993   3.3271673  82.1361313  57.0956993  11.7831673  89.4971313
  56.5216993  12.1991673  90.0061313  57.8286993  12.2481673  89.5921313
  57.1196993  11.9131673  89.5861313  69.1296993   6.5561673  79.0621313
  69.1976993   5.7061673  79.2431313  68.3066993   6.6421673  78.7841313
  69.0176993   6.4431673  79.0481313  58.8816993  15.0501673  78.2721313
  58.7366993  15.2061673  77.4261313  59.7476993  15.1291673  78.3501313
  58.9886993  15.0851673  78.1591313  63.0486993   7.4471673  78.0001313
  63.1486993   7.5861673  77.1451313  63.8666993   7.3871673  78.2961313
  63.1836993   7.4581673  77.9171313  68.2836993  11.7761673  77.8021313
  68.0326993  11.6481673  78.6281313  67.9666993  11.0811673  77.3811313
  68.1996993  11.6551673  77.8621313  59.5686993  13.8651673  84.7491313
  59.4896993  13.0551673  84.4331313  59.1246993  14.3521673  84.1771313
  59.4916993  13.8171673  84.6181313  65.1696993   9.9841673  77.2321313
  65.8866993   9.6371673  76.8761313  65.1356993  10.7841673  76.8841313
  65.2706993  10.0511673  77.1281313  57.1406993  16.1091673  88.3301313
  57.6336993  16.0531673  89.0481313  57.3286993  15.3761673  87.8951313
  57.2416993  15.9921673  88.3721313  66.3876993   5.5411673  66.1418903
  65.8636993   6.1371673  66.5048903  66.7846993   5.1731673  66.8258903
  66.3686993   5.5751673  66.2968903  56.2566993   9.6811673  61.5978903
  55.8156993   9.7991673  62.3408903  55.9736993   8.9061673  61.3128903
  56.1496993   9.5841673  61.6658903  55.9996993   3.4731673  58.1048903
  55.2216993   3.6351673  57.7448903  56.0386993   2.6021673  58.1268903
  55.8906993   3.3681673  58.0548903  59.1386993   8.7361673  56.7768903
  58.7466993   8.3651673  56.0908903  59.0586993   8.1381673  57.4058903
  59.0686993   8.5931673  56.7678903  69.0586993   6.6081673  62.8178903
  69.1386993   6.6121673  61.9488903  68.4746993   5.9761673  62.9668903
  68.9836993   6.5151673  62.7118903  58.7656993  10.3771673  60.6768903
  59.3736993  10.2071673  61.2798903  58.0146993  10.2371673  61.0978903
  58.7446993  10.3311673  60.8278903  57.6566993  13.4681673  56.7538903
  58.1236993  13.5521673  56.0218903  58.1116993  12.8901673  57.2228903
  57.7926993  13.3951673  56.7148903  56.1966993  12.4161673  67.8528903
  56.3256993  12.1361673  68.6688903  55.5866993  11.8751673  67.5438903
  56.1256993  12.2951673  67.9278903  62.7706993   9.9411673  72.9198903
  62.5346993   9.9381673  73.7598903  62.0226993   9.7931673  72.4958903
  62.6246993   9.9181673  72.9808903  57.6426993   6.9371673  62.0548903
  57.1806993   6.5451673  61.4278903  58.3426993   6.4241673  62.1468903
  57.6776993   6.8041673  61.9758903  62.7526993  13.1331673  70.1828903
  62.8906993  13.8931673  69.7758903  63.5436993  12.7681673  70.2098903
  62.8896993  13.1921673  70.1268903  59.6436993   5.0371673  62.0778903
  60.4606993   4.8501673  62.3208903  59.1666993   4.4231673  62.4738903
  59.6936993   4.9191673  62.1728903  63.8476993  11.0181673  64.6878903
  64.1956993  10.2191673  64.7178903  64.5126993  11.5221673  64.4328903
  63.9976993  10.9741673  64.6548903  63.9046993  10.4671673  60.8988903
  64.2356993   9.8231673  61.3848903  64.1446993  10.2561673  60.0878903
  63.9886993  10.3411673  60.8508903  65.8726993   4.5981673  72.2378903
  65.0246993   4.4991673  72.0598903  65.9016993   5.3431673  72.6918903
  65.7516993   4.6941673  72.2788903  56.0986993   4.6981673  65.0678903
  55.8426993   5.5291673  64.9928903  55.4346993   4.3151673  65.4848903
  55.9626993   4.7641673  65.1188903  56.0086993  14.4081673  62.9678903
  55.4166993  14.9661673  62.6548903  56.4346993  14.1391673  62.2558903
  55.9846993  14.4501673  62.8168903  61.8486993  12.2521673  60.4478903
  61.2696993  11.9771673  61.0398903  62.4726993  11.6431673  60.4728903
  61.8556993  12.1221673  60.5388903  67.9916993  14.5401673  57.9698903
  68.7186993  15.0121673  58.0718903  68.2206993  13.7461673  58.2498903
  68.1336993  14.4931673  58.0268903  66.1596993  14.9321673  59.9598903
  66.3736993  15.4591673  60.6218903  66.9266993  14.7581673  59.5808903
  66.3046993  14.9841673  60.0018903  57.5536993  13.0781673  60.8988903
  58.2096993  12.5031673  60.9138903  57.9426993  13.8271673  60.6778903
  57.7086993  13.1031673  60.8688903  68.5986993  14.9421673  68.2648903
  69.3426993  15.3981673  68.2548903  68.4776993  14.7281673  67.4278903
  68.6906993  14.9781673  68.1398903  58.3716993  11.5651673  64.3988903
  58.7946993  11.2091673  63.7248903  58.6956993  11.1431673  65.0908903
  58.4816993  11.4501673  64.4018903  61.6026993  14.4171673  63.6948903
  62.4466993  14.5211673  63.4998903  61.3056993  15.2351673  63.7628903
  61.6836993  14.5531673  63.6758903  65.4096993   3.8141673  61.7818903
  65.6966993   3.5821673  60.9918903  66.1416993   3.8931673  62.2508903
  65.5596993   3.7911673  61.7348903  66.1316993   4.1531673  56.9028903
  66.4126993   4.9411673  57.1518903  65.3556993   4.3181673  56.5398903
  66.0586993   4.2941673  56.8858903  70.1726993  16.1271673  58.3698903
  70.8376993  15.9791673  57.8248903  70.5326993  16.0441673  59.1598903
  70.3246993  16.0931673  58.4058903  60.6006993  15.6361673  69.4348903
  60.8926993  15.5691673  70.2548903  59.9746993  15.0311673  69.3898903
  60.5516993  15.5371673  69.5498903  55.5146993   1.7931673  71.4268903
  55.5106993   2.3801673  72.0728903  56.1086993   2.1051673  70.8698903
  55.6016993   1.9261673  71.4398903  67.8526993  12.1271673  71.9688903
  67.8186993  12.5091673  72.7528903  68.7066993  12.0851673  71.7978903
  67.9736993  12.1771673  72.0598903  64.9906993  12.3241673  56.7188903
  64.8096993  12.8691673  57.3758903  65.7566993  12.6141673  56.4178903
  65.0766993  12.4481673  56.7718903  58.5936993  13.7981673  68.5568903
  57.8956993  13.2901673  68.6828903  58.8536993  13.5931673  67.7488903
  58.5286993  13.6931673  68.4558903  65.7556993   2.5961673  59.0868903
  65.2476993   1.9341673  58.8328903  65.8076993   3.1001673  58.3768903
  65.6886993   2.5731673  58.9448903  66.3046993  15.2911673  69.4668903
  67.0726993  15.2111673  69.0608903  65.7216993  15.1701673  68.8288903
  66.3316993  15.2611673  69.3128903  64.3536993   1.9041673  63.4998903
  64.4276993   2.4721673  62.8418903  64.4746993   2.3961673  64.2098903
  64.3816993   2.0611673  63.5078903  69.5786993  11.7391673  61.9118903
  70.2796993  11.2571673  62.1008903  68.9186993  11.1701673  61.9568903
  69.5846993  11.5841673  61.9458903  59.9546993  12.6491673  71.1238903
  60.7956993  12.7121673  70.9018903  59.9176993  13.0461673  71.8998903
  60.0736993  12.7171673  71.2058903  61.9176993   8.1601673  65.8728903
  62.0896993   7.9501673  66.7018903  61.2626993   7.6261673  65.6568903
  61.8466993   8.0501673  65.9638903  62.6676993   8.0981673  68.4628903
  62.7206993   8.9451673  68.6648903  62.3826993   7.7281673  69.1998903
  62.6336993   8.1681673  68.6008903  68.8446993   8.7931673  67.5928903
  68.3306993   8.3811673  68.1638903  68.7186993   9.6371673  67.7738903
  68.7506993   8.8571673  67.7038903  55.4886993  12.4691673  74.6738903
  56.2446993  12.8181673  74.9318903  55.6656993  11.6161673  74.6168903
  55.6266993  12.3941673  74.7038903  59.2336993   8.9641673  63.0508903
  60.0846993   8.8841673  62.8778903  58.8766993   8.2821673  62.6388903
  59.3066993   8.8511673  62.9638903  58.0006993  15.6891673  64.2878903
  57.3276993  15.1911673  64.0428903  58.4036993  15.8741673  63.5368903
  57.9606993  15.6431673  64.1408903  57.5506993   2.6391673  66.5838903
  58.3936993   2.8591673  66.5408903  57.1616993   3.2121673  66.0528903
  57.6176993   2.7561673  66.4988903  69.9926993   5.7691673  57.3048903
  69.7726993   6.5001673  56.8828903  69.5446993   5.8201673  58.0518903
  69.8936993   5.8841673  57.3528903  61.6016993   8.9711673  61.2858903
  62.3146993   9.4661673  61.3758903  61.8236993   8.4041673  60.6598903
  61.7396993   8.9601673  61.2068903  55.7576993  10.6141673  64.6058903
  55.0906993  11.1021673  64.8818903  56.4376993  11.1591673  64.6348903
  55.7596993  10.7661673  64.6508903  63.4046993   4.3241673  74.7018903
  62.9206993   4.9011673  75.1438903  63.3766993   4.6191673  73.8808903
  63.3286993   4.4531673  74.6458903  55.8236993   7.2981673  59.7088903
  55.6386993   6.4591673  59.8608903  56.4826993   7.2621673  59.1388903
  55.8936993   7.1691673  59.6468903  66.1246993  12.6741673  63.6128903
  65.6016993  13.3081673  63.3198903  66.4346993  12.3101673  62.8838903
  66.0926993  12.7141673  63.4618903  55.9956993  11.4621673  59.2838903
  56.5476993  12.0311673  59.6478903  55.7636993  10.9471673  59.9488903
  56.0426993  11.4701673  59.4358903  60.1996993  10.4621673  66.3728903
  60.6666993  10.7511673  67.0508903  60.7716993   9.9841673  65.9188903
  60.3536993  10.4341673  66.4058903  55.8256993   9.9111673  56.9118903
  56.5816993   9.4791673  56.9698903  55.8406993  10.4431673  57.6028903
  55.9396993   9.9261673  57.0228903  56.7656993   8.1321673  64.9168903
  57.1966993   8.0031673  64.1698903  56.5606993   8.9801673  64.8908903
  56.7986993   8.2381673  64.8028903  60.8496993  11.6481673  63.1988903
  60.9756993  12.4911673  63.3858903  61.5176993  11.2491673  63.5948903
  60.9676993  11.7141673  63.2848903  58.9796993   5.1311673  73.0608903
  58.4436993   4.6251673  73.5288903  58.9996993   4.7411673  72.2808903
  58.9026993   4.9981673  73.0148903  59.4646993   4.5281673  58.2008903
  59.3366993   4.0801673  58.9388903  58.8826993   4.1861673  57.6488903
  59.3596993   4.4111673  58.2288903  59.6316993   6.3581673  64.7998903
  58.8506993   6.2991673  64.4168903  59.7036993   5.6061673  65.2368903
  59.5266993   6.2391673  64.8078903  60.0616993   6.0951673  68.2678903
  60.0866993   5.4201673  67.7168903  59.4156993   6.5911673  67.9558903
  59.9706993   6.0681673  68.1408903  69.9566993   3.8081673  66.6638903
  69.2946993   4.1361673  67.1268903  70.1436993   4.4421673  66.0948903
  69.8866993   3.9501673  66.6478903  64.1616993  14.8721673  67.6598903
  63.8846993  14.2311673  67.1368903  63.9536993  15.5981673  67.2218903
  64.0906993  14.8851673  67.5178903  68.1496993   1.7771673  60.1748903
  68.6396993   2.4941673  60.0978903  67.3596993   2.0381673  59.9118903
  68.1056993   1.9211673  60.1248903  57.8606993   7.4501673  73.8268903
  57.8236993   7.9511673  73.1128903  58.1916993   6.6981673  73.5318903
  57.9036993   7.4121673  73.6778903  69.4636993   9.6551673  72.0848903
  69.9476993  10.3731673  72.1828903  69.8576993   9.2281673  71.4338903
  69.5936993   9.6981673  72.0028903  63.7596993  12.5001673  73.2618903
  64.1136993  12.3221673  74.0388903  63.3236993  11.7711673  73.0628903
  63.7476993  12.3661673  73.3478903  64.7316993   3.2471673  65.8998903
  65.2116993   3.9461673  66.1078903  65.1046993   2.6001673  66.3508903
  64.8576993   3.2551673  65.9968903  66.9206993   6.4161673  58.1738903
  66.9126993   7.1381673  57.6838903  66.2816993   6.5511673  58.7508903
  66.8256993   6.5431673  58.1868903  67.9376993  13.3521673  65.9988903
  67.3346993  13.0561673  65.4418903  68.4826993  13.8041673  65.4898903
  67.9286993  13.3751673  65.8408903  67.9506993  10.2031673  65.3988903
  67.1536993  10.4271673  65.6728903  68.2086993   9.6091673  65.9838903
  67.8706993  10.1481673  65.5258903  61.8426993  15.0151673  59.8468903
  61.6956993  14.2391673  60.2178903  62.5316993  14.8681673  59.3318903
  61.9226993  14.8781673  59.8258903  64.1346993  14.5311673  58.2488903
  64.7566993  14.6941673  58.8388903  64.1706993  15.2221673  57.7168903
  64.2316993  14.6571673  58.2578903  67.4016993  13.5501673  74.5218903
  67.5656993  13.8331673  75.3308903  67.6646993  14.2111673  74.0168903
  67.4646993  13.6901673  74.5668903  58.6356993   7.0651673  59.0778903
  58.9596993   6.2861673  58.8558903  59.2816993   7.4331673  59.5328903
  58.7786993   7.0041673  59.1118903  66.9416993   8.0071673  69.8448903
  66.7866993   8.6171673  70.4488903  67.4756993   7.4491673  70.2508903
  66.9976993   8.0151673  69.9938903  65.3256993   6.4071673  60.5028903
  65.3846993   7.0571673  61.0818903  65.1366993   5.7111673  60.9938903
  65.3066993   6.4001673  60.6608903  70.5516993  10.7361673  66.3718903
  70.0726993  11.0341673  65.7058903  70.1956993   9.9601673  66.5498903
  70.4286993  10.6651673  66.2998903  64.5486993   8.4541673  64.9338903
  63.7016993   8.2601673  65.0148903  64.8726993   8.2891673  65.7268903
  64.4706993   8.4011673  65.0628903  61.3006993  15.1841673  55.8198903
  61.7396993  14.4871673  56.1078903  61.5076993  15.8081673  56.3928903
  61.3966993  15.1731673  55.9468903  58.3966993   8.1471673  67.2498903
  59.1186993   8.6351673  67.2128903  58.1266993   8.1171673  66.4208903
  58.4636993   8.2151673  67.1218903  61.6266993   3.3181673  63.9848903
  62.4726993   3.1281673  64.0828903  61.2566993   2.5411673  63.8468903
  61.6966993   3.1751673  63.9788903  56.4476993   4.6561673  60.6398903
  56.9366993   4.3641673  61.3008903  56.5766993   4.0631673  60.0128903
  56.5386993   4.5251673  60.6448903  60.9726993   6.0901673  56.1258903
  60.3626993   5.6851673  56.5998903  60.5866993   6.2081673  55.3528903
  60.8256993   6.0471673  56.0818903  57.7916993   9.1991673  71.5278903
  57.3706993   8.6811673  70.9668903  57.4396993   9.9851673  71.3848903
  57.6776993   9.2391673  71.4238903  62.4276993   4.5511673  58.8358903
  62.6996993   5.3771673  58.9028903  61.5646993   4.6261673  58.7398903
  62.3406993   4.6841673  58.8308903  68.8926993   5.2421673  73.5438903
  68.9656993   5.3461673  74.4068903  68.2586993   5.8001673  73.3228903
  68.8096993   5.3401673  73.6388903  70.4746993  11.9851673  57.4388903
  70.8086993  11.1791673  57.4738903  69.7196993  11.9131673  57.8688903
  70.4126993  11.8551673  57.5078903  70.9566993   3.8191673  63.0978903
  70.2116993   3.4961673  63.4158903  70.9586993   4.6451673  63.3778903
  70.8466993   3.8931673  63.1858903  67.8486993   9.8601673  56.8418903
  68.5326993   9.3461673  56.6728903  67.4316993   9.9061673  56.0768903
  67.8876993   9.7911673  56.7038903  62.5306993  11.0101673  68.1458903
  62.2326993  11.6021673  68.7128903  62.5856993  11.4521673  67.3968903
  62.4946993  11.1631673  68.1188903  60.5096993   9.9601673  71.5438903
  59.7036993   9.6701673  71.7108903  60.4206993  10.8281673  71.5498903
  60.3776993  10.0451673  71.5688903  65.0466993   7.4331673  67.6368903
  65.5226993   7.8071673  68.2648903  64.2236993   7.5671673  67.8958903
  64.9956993   7.5081673  67.7678903  61.7566993   3.0361673  70.3778903
  61.9176993   2.2921673  70.8048903  61.7116993   2.7871673  69.5428903
  61.7736993   2.8891673  70.3178903  64.3106993  14.8261673  62.8648903
  64.8566993  15.5051673  62.9188903  63.9606993  14.9081673  62.0698903
  64.3396993  14.9391673  62.7548903  62.4936993  13.0541673  66.2538903
  61.8696993  13.6361673  66.0718903  62.7416993  12.7681673  65.4678903
  62.4376993  13.0981673  66.1108903  66.8026993   9.6881673  73.2428903
  67.5596993   9.9741673  72.9168903  66.2556993   9.7401673  72.5648903
  66.8336993   9.7381673  73.0938903  70.7116993  12.2381673  71.7468903
  71.0576993  12.5081673  72.5008903  71.0056993  12.8201673  71.1668903
  70.8066993  12.3641673  71.7728903  64.0876993   7.8301673  56.1688903
  63.2826993   7.6531673  55.8838903  64.0546993   8.6811673  56.3608903
  63.9636993   7.9291673  56.1558903  60.0176993   3.8971673  66.3188903
  60.4576993   3.7941673  65.5728903  60.5626993   3.5841673  66.9238903
  60.1626993   3.8361673  66.2978903  68.0336993   2.9991673  71.9108903
  67.3856993   3.4691673  72.2588903  68.5986993   2.9101673  72.5698903
  68.0216993   3.0551673  72.0598903  67.7216993   4.5361673  68.2088903
  68.0236993   4.9561673  68.9118903  67.7576993   3.6961673  68.4408903
  67.7716993   4.4741673  68.3468903  65.1466993  14.7031673  72.1338903
  65.6246993  14.1031673  71.7178903  64.7956993  14.2601673  72.7988903
  65.1656993  14.5491673  72.1708903  70.2696993   3.9831673  60.4608903
  70.4766993   3.7821673  61.2848903  71.0256993   4.2511673  60.1188903
  70.4116993   3.9931673  60.5318903  65.2056993   9.9221673  71.1538903
  64.4106993   9.8581673  71.5048903  65.2766993  10.7691673  70.9588903
  65.0986993  10.0371673  71.1768903  61.0356993  16.1291673  66.4708903
  61.0466993  16.1881673  67.3408903  60.6106993  15.3821673  66.3208903
  60.9746993  16.0271673  66.5768903  67.9506993   9.1771673  62.6698903
  68.0266993   9.5181673  63.4688903  68.1196993   8.3301673  62.7908903
  67.9866993   9.1021673  62.8058903  65.4726993   8.4511673  62.2348903
  65.1746993   8.1361673  62.9918903  66.1676993   8.9241673  62.4698903
  65.5316993   8.4741673  62.3818903  65.6946993  12.5691673  70.2618903
  66.3816993  12.4551673  70.7868903  65.8286993  13.3601673  69.9178903
  65.8156993  12.6691673  70.2888903  68.3836993   5.8431673  70.6488903
  68.1286993   5.1241673  71.0708903  69.2046993   5.9591673  70.9188903
  68.4676993   5.7541673  70.7508903  57.7996993  15.6271673  71.9128903
  57.1456993  15.0581673  72.0108903  57.4246993  16.4001673  72.0638903
  57.6476993  15.6571673  71.9498903  66.3176993   7.0331673  73.8358903
  66.6406993   7.7191673  73.4038903  65.6136993   7.3561673  74.2378903
  66.2606993   7.1821673  73.8308903  69.4016993  15.4071673  64.7648903
  68.9506993  16.0501673  65.1438903  70.1096993  15.3281673  65.2698903
  69.4396993  15.4901673  64.8958903  66.1026993  10.4971673  67.6948903
  65.4086993  10.8991673  68.0378903  66.7796993  10.9301673  68.0338903
  66.0996993  10.6201673  67.7958903  59.1706993   4.0351673  70.0418903
  59.5456993   4.6541673  69.5548903  59.8446993   3.5611673  70.3268903
  59.3256993   4.0571673  70.0118903  56.9456993   2.4831673  69.3168903
  57.0226993   2.3141673  68.4638903  57.6916993   2.8891673  69.5138903
  57.0666993   2.5181673  69.2198903  66.4246993  12.0881673  60.8638903
  66.2196993  12.9211673  60.7048903  65.6496993  11.7061673  60.9858903
  66.2796993  12.1551673  60.8588903  56.3426993   7.7091673  69.5408903
  56.6626993   7.9281673  68.7598903  56.2426993   6.8441673  69.4858903
  56.3746993   7.6141673  69.4178903  57.7986993   3.6451673  56.1588903
  57.1266993   3.6591673  56.7148903  57.8936993   2.7971673  55.9748903
  57.7136993   3.5221673  56.2138903  61.7866993  12.3501673  57.2728903
  62.2276993  12.4301673  58.0208903  60.9816993  12.1341673  57.5308903
  61.7326993  12.3301673  57.4218903  61.1056993   7.0011673  70.9258903
  60.7096993   7.7751673  71.0008903  60.6996993   6.6281673  70.2498903
  60.9876993   7.0601673  70.8368903  70.3816993   6.0551673  65.0398903
  71.0476993   6.5961673  65.1998903  70.0366993   6.3661673  64.3008903
  70.4286993   6.1811673  64.9548903  59.1156993  11.4201673  57.8738903
  58.8716993  11.1131673  58.6538903  59.0826993  10.7171673  57.3578903
  59.0746993  11.2711673  57.9128903  61.9346993   9.6651673  56.6168903
  61.1166993   9.3971673  56.7568903  61.9066993  10.5171673  56.8018903
  61.8096993   9.7521673  56.6648903  68.3696993  11.5741673  68.5378903
  68.5756993  11.8751673  69.3298903  68.3086993  12.2961673  68.0528903
  68.3906993  11.7251673  68.5828903  67.9036993  15.7881673  72.7838903
  67.1506993  15.7701673  72.3428903  68.0716993  16.6401673  72.8678903
  67.8176993  15.9111673  72.7308903  63.1406993   5.0551673  71.9538903
  62.8186993   4.4791673  71.3838903  62.7816993   5.8101673  71.7078903
  63.0406993   5.0811673  71.8338903  61.5756993  15.4111673  72.2018903
  61.6166993  15.5371673  73.0648903  62.2266993  14.8511673  72.0458903
  61.6776993  15.3471673  72.3068903  59.1686993  13.7941673  73.5618903
  59.7636993  14.2251673  74.0338903  58.8046993  14.4181673  73.0728903
  59.2026993  13.9501673  73.5588903  67.1596993   4.7251673  63.4938903
  67.7106993   4.1181673  63.7938903  66.7346993   4.9881673  64.2088903
  67.1786993   4.6741673  63.6428903  57.4076993   3.3751673  62.9798903
  57.0396993   3.6771673  63.7108903  57.9416993   2.7461673  63.2638903
  57.4316993   3.3271673  63.1298903  57.0956993  11.7831673  70.4908903
  56.5216993  12.1991673  70.9998903  57.8286993  12.2481673  70.5858903
  57.1196993  11.9131673  70.5798903  69.1296993   6.5561673  60.0558903
  69.1976993   5.7061673  60.2368903  68.3066993   6.6421673  59.7778903
  69.0176993   6.4431673  60.0418903  58.8816993  15.0501673  59.2658903
  58.7366993  15.2061673  58.4198903  59.7476993  15.1291673  59.3438903
  58.9886993  15.0851673  59.1528903  63.0486993   7.4471673  58.9938903
  63.1486993   7.5861673  58.1388903  63.8666993   7.3871673  59.2898903
  63.1836993   7.4581673  58.9108903  68.2836993  11.7761673  58.7958903
  68.0326993  11.6481673  59.6218903  67.9666993  11.0811673  58.3748903
  68.1996993  11.6551673  58.8558903  69.8146993   8.0401673  74.5618903
  70.6856993   8.0041673  74.5258903  69.5956993   8.4601673  73.8298903
  69.9116993   8.0961673  74.4488903  59.5686993  13.8651673  65.7428903
  59.4896993  13.0551673  65.4268903  59.1246993  14.3521673  65.1708903
  59.4916993  13.8171673  65.6118903  65.1696993   9.9841673  58.2258903
  65.8866993   9.6371673  57.8698903  65.1356993  10.7841673  57.8778903
  65.2706993  10.0511673  58.1218903  57.1406993  16.1091673  69.3238903
  57.6336993  16.0531673  70.0418903  57.3286993  15.3761673  68.8888903
  57.2416993  15.9921673  69.3658903  66.3876993   5.5411673  47.1356493
  65.8636993   6.1371673  47.4986493  66.7846993   5.1731673  47.8196493
  66.3686993   5.5751673  47.2906493  56.2566993   9.6811673  42.5916493
  55.8156993   9.7991673  43.3346493  55.9736993   8.9061673  42.3066493
  56.1496993   9.5841673  42.6596493  55.9996993   3.4731673  39.0986493
  55.2216993   3.6351673  38.7386493  56.0386993   2.6021673  39.1206493
  55.8906993   3.3681673  39.0486493  59.1386993   8.7361673  37.7706493
  58.7466993   8.3651673  37.0846493  59.0586993   8.1381673  38.3996493
  59.0686993   8.5931673  37.7616493  69.0586993   6.6081673  43.8116493
  69.1386993   6.6121673  42.9426493  68.4746993   5.9761673  43.9606493
  68.9836993   6.5151673  43.7056493  58.7656993  10.3771673  41.6706493
  59.3736993  10.2071673  42.2736493  58.0146993  10.2371673  42.0916493
  58.7446993  10.3311673  41.8216493  57.6566993  13.4681673  37.7476493
  58.1236993  13.5521673  37.0156493  58.1116993  12.8901673  38.2166493
  57.7926993  13.3951673  37.7086493  56.1966993  12.4161673  48.8466493
  56.3256993  12.1361673  49.6626493  55.5866993  11.8751673  48.5376493
  56.1256993  12.2951673  48.9216493  62.7706993   9.9411673  53.9136493
  62.5346993   9.9381673  54.7536493  62.0226993   9.7931673  53.4896493
  62.6246993   9.9181673  53.9746493  57.6426993   6.9371673  43.0486493
  57.1806993   6.5451673  42.4216493  58.3426993   6.4241673  43.1406493
  57.6776993   6.8041673  42.9696493  62.7526993  13.1331673  51.1766493
  62.8906993  13.8931673  50.7696493  63.5436993  12.7681673  51.2036493
  62.8896993  13.1921673  51.1206493  59.6436993   5.0371673  43.0716493
  60.4606993   4.8501673  43.3146493  59.1666993   4.4231673  43.4676493
  59.6936993   4.9191673  43.1666493  63.8476993  11.0181673  45.6816493
  64.1956993  10.2191673  45.7116493  64.5126993  11.5221673  45.4266493
  63.9976993  10.9741673  45.6486493  63.9046993  10.4671673  41.8926493
  64.2356993   9.8231673  42.3786493  64.1446993  10.2561673  41.0816493
  63.9886993  10.3411673  41.8446493  65.8726993   4.5981673  53.2316493
  65.0246993   4.4991673  53.0536493  65.9016993   5.3431673  53.6856493
  65.7516993   4.6941673  53.2726493  56.0986993   4.6981673  46.0616493
  55.8426993   5.5291673  45.9866493  55.4346993   4.3151673  46.4786493
  55.9626993   4.7641673  46.1126493  56.0086993  14.4081673  43.9616493
  55.4166993  14.9661673  43.6486493  56.4346993  14.1391673  43.2496493
  55.9846993  14.4501673  43.8106493  61.8486993  12.2521673  41.4416493
  61.2696993  11.9771673  42.0336493  62.4726993  11.6431673  41.4666493
  61.8556993  12.1221673  41.5326493  67.9916993  14.5401673  38.9636493
  68.7186993  15.0121673  39.0656493  68.2206993  13.7461673  39.2436493
  68.1336993  14.4931673  39.0206493  66.1596993  14.9321673  40.9536493
  66.3736993  15.4591673  41.6156493  66.9266993  14.7581673  40.5746493
  66.3046993  14.9841673  40.9956493  57.5536993  13.0781673  41.8926493
  58.2096993  12.5031673  41.9076493  57.9426993  13.8271673  41.6716493
  57.7086993  13.1031673  41.8626493  68.5986993  14.9421673  49.2586493
  69.3426993  15.3981673  49.2486493  68.4776993  14.7281673  48.4216493
  68.6906993  14.9781673  49.1336493  58.3716993  11.5651673  45.3926493
  58.7946993  11.2091673  44.7186493  58.6956993  11.1431673  46.0846493
  58.4816993  11.4501673  45.3956493  61.6026993  14.4171673  44.6886493
  62.4466993  14.5211673  44.4936493  61.3056993  15.2351673  44.7566493
  61.6836993  14.5531673  44.6696493  65.4096993   3.8141673  42.7756493
  65.6966993   3.5821673  41.9856493  66.1416993   3.8931673  43.2446493
  65.5596993   3.7911673  42.7286493  66.1316993   4.1531673  37.8966493
  66.4126993   4.9411673  38.1456493  65.3556993   4.3181673  37.5336493
  66.0586993   4.2941673  37.8796493  70.1726993  16.1271673  39.3636493
  70.8376993  15.9791673  38.8186493  70.5326993  16.0441673  40.1536493
  70.3246993  16.0931673  39.3996493  60.6006993  15.6361673  50.4286493
  60.8926993  15.5691673  51.2486493  59.9746993  15.0311673  50.3836493
  60.5516993  15.5371673  50.5436493  55.5146993   1.7931673  52.4206493
  55.5106993   2.3801673  53.0666493  56.1086993   2.1051673  51.8636493
  55.6016993   1.9261673  52.4336493  67.8526993  12.1271673  52.9626493
  67.8186993  12.5091673  53.7466493  68.7066993  12.0851673  52.7916493
  67.9736993  12.1771673  53.0536493  64.9906993  12.3241673  37.7126493
  64.8096993  12.8691673  38.3696493  65.7566993  12.6141673  37.4116493
  65.0766993  12.4481673  37.7656493  58.5936993  13.7981673  49.5506493
  57.8956993  13.2901673  49.6766493  58.8536993  13.5931673  48.7426493
  58.5286993  13.6931673  49.4496493  65.7556993   2.5961673  40.0806493
  65.2476993   1.9341673  39.8266493  65.8076993   3.1001673  39.3706493
  65.6886993   2.5731673  39.9386493  66.3046993  15.2911673  50.4606493
  67.0726993  15.2111673  50.0546493  65.7216993  15.1701673  49.8226493
  66.3316993  15.2611673  50.3066493  64.3536993   1.9041673  44.4936493
  64.4276993   2.4721673  43.8356493  64.4746993   2.3961673  45.2036493
  64.3816993   2.0611673  44.5016493  69.5786993  11.7391673  42.9056493
  70.2796993  11.2571673  43.0946493  68.9186993  11.1701673  42.9506493
  69.5846993  11.5841673  42.9396493  59.9546993  12.6491673  52.1176493
  60.7956993  12.7121673  51.8956493  59.9176993  13.0461673  52.8936493
  60.0736993  12.7171673  52.1996493  61.9176993   8.1601673  46.8666493
  62.0896993   7.9501673  47.6956493  61.2626993   7.6261673  46.6506493
  61.8466993   8.0501673  46.9576493  62.6676993   8.0981673  49.4566493
  62.7206993   8.9451673  49.6586493  62.3826993   7.7281673  50.1936493
  62.6336993   8.1681673  49.5946493  68.8446993   8.7931673  48.5866493
  68.3306993   8.3811673  49.1576493  68.7186993   9.6371673  48.7676493
  68.7506993   8.8571673  48.6976493  55.4886993  12.4691673  55.6676493
  56.2446993  12.8181673  55.9256493  55.6656993  11.6161673  55.6106493
  55.6266993  12.3941673  55.6976493  59.2336993   8.9641673  44.0446493
  60.0846993   8.8841673  43.8716493  58.8766993   8.2821673  43.6326493
  59.3066993   8.8511673  43.9576493  58.0006993  15.6891673  45.2816493
  57.3276993  15.1911673  45.0366493  58.4036993  15.8741673  44.5306493
  57.9606993  15.6431673  45.1346493  57.5506993   2.6391673  47.5776493
  58.3936993   2.8591673  47.5346493  57.1616993   3.2121673  47.0466493
  57.6176993   2.7561673  47.4926493  69.9926993   5.7691673  38.2986493
  69.7726993   6.5001673  37.8766493  69.5446993   5.8201673  39.0456493
  69.8936993   5.8841673  38.3466493  61.6016993   8.9711673  42.2796493
  62.3146993   9.4661673  42.3696493  61.8236993   8.4041673  41.6536493
  61.7396993   8.9601673  42.2006493  55.7576993  10.6141673  45.5996493
  55.0906993  11.1021673  45.8756493  56.4376993  11.1591673  45.6286493
  55.7596993  10.7661673  45.6446493  63.4046993   4.3241673  55.6956493
  62.9206993   4.9011673  56.1376493  63.3766993   4.6191673  54.8746493
  63.3286993   4.4531673  55.6396493  55.8236993   7.2981673  40.7026493
  55.6386993   6.4591673  40.8546493  56.4826993   7.2621673  40.1326493
  55.8936993   7.1691673  40.6406493  66.1246993  12.6741673  44.6066493
  65.6016993  13.3081673  44.3136493  66.4346993  12.3101673  43.8776493
  66.0926993  12.7141673  44.4556493  55.9956993  11.4621673  40.2776493
  56.5476993  12.0311673  40.6416493  55.7636993  10.9471673  40.9426493
  56.0426993  11.4701673  40.4296493  60.1996993  10.4621673  47.3666493
  60.6666993  10.7511673  48.0446493  60.7716993   9.9841673  46.9126493
  60.3536993  10.4341673  47.3996493  55.8256993   9.9111673  37.9056493
  56.5816993   9.4791673  37.9636493  55.8406993  10.4431673  38.5966493
  55.9396993   9.9261673  38.0166493  56.7656993   8.1321673  45.9106493
  57.1966993   8.0031673  45.1636493  56.5606993   8.9801673  45.8846493
  56.7986993   8.2381673  45.7966493  60.8496993  11.6481673  44.1926493
  60.9756993  12.4911673  44.3796493  61.5176993  11.2491673  44.5886493
  60.9676993  11.7141673  44.2786493  58.9796993   5.1311673  54.0546493
  58.4436993   4.6251673  54.5226493  58.9996993   4.7411673  53.2746493
  58.9026993   4.9981673  54.0086493  59.4646993   4.5281673  39.1946493
  59.3366993   4.0801673  39.9326493  58.8826993   4.1861673  38.6426493
  59.3596993   4.4111673  39.2226493  59.6316993   6.3581673  45.7936493
  58.8506993   6.2991673  45.4106493  59.7036993   5.6061673  46.2306493
  59.5266993   6.2391673  45.8016493  60.0616993   6.0951673  49.2616493
  60.0866993   5.4201673  48.7106493  59.4156993   6.5911673  48.9496493
  59.9706993   6.0681673  49.1346493  69.9566993   3.8081673  47.6576493
  69.2946993   4.1361673  48.1206493  70.1436993   4.4421673  47.0886493
  69.8866993   3.9501673  47.6416493  64.1616993  14.8721673  48.6536493
  63.8846993  14.2311673  48.1306493  63.9536993  15.5981673  48.2156493
  64.0906993  14.8851673  48.5116493  68.1496993   1.7771673  41.1686493
  68.6396993   2.4941673  41.0916493  67.3596993   2.0381673  40.9056493
  68.1056993   1.9211673  41.1186493  57.8606993   7.4501673  54.8206493
  57.8236993   7.9511673  54.1066493  58.1916993   6.6981673  54.5256493
  57.9036993   7.4121673  54.6716493  69.4636993   9.6551673  53.0786493
  69.9476993  10.3731673  53.1766493  69.8576993   9.2281673  52.4276493
  69.5936993   9.6981673  52.9966493  63.7596993  12.5001673  54.2556493
  64.1136993  12.3221673  55.0326493  63.3236993  11.7711673  54.0566493
  63.7476993  12.3661673  54.3416493  64.7316993   3.2471673  46.8936493
  65.2116993   3.9461673  47.1016493  65.1046993   2.6001673  47.3446493
  64.8576993   3.2551673  46.9906493  66.9206993   6.4161673  39.1676493
  66.9126993   7.1381673  38.6776493  66.2816993   6.5511673  39.7446493
  66.8256993   6.5431673  39.1806493  67.9376993  13.3521673  46.9926493
  67.3346993  13.0561673  46.4356493  68.4826993  13.8041673  46.4836493
  67.9286993  13.3751673  46.8346493  67.9506993  10.2031673  46.3926493
  67.1536993  10.4271673  46.6666493  68.2086993   9.6091673  46.9776493
  67.8706993  10.1481673  46.5196493  61.8426993  15.0151673  40.8406493
  61.6956993  14.2391673  41.2116493  62.5316993  14.8681673  40.3256493
  61.9226993  14.8781673  40.8196493  64.1346993  14.5311673  39.2426493
  64.7566993  14.6941673  39.8326493  64.1706993  15.2221673  38.7106493
  64.2316993  14.6571673  39.2516493  67.4016993  13.5501673  55.5156493
  67.5656993  13.8331673  56.3246493  67.6646993  14.2111673  55.0106493
  67.4646993  13.6901673  55.5606493  58.6356993   7.0651673  40.0716493
  58.9596993   6.2861673  39.8496493  59.2816993   7.4331673  40.5266493
  58.7786993   7.0041673  40.1056493  66.9416993   8.0071673  50.8386493
  66.7866993   8.6171673  51.4426493  67.4756993   7.4491673  51.2446493
  66.9976993   8.0151673  50.9876493  65.3256993   6.4071673  41.4966493
  65.3846993   7.0571673  42.0756493  65.1366993   5.7111673  41.9876493
  65.3066993   6.4001673  41.6546493  70.5516993  10.7361673  47.3656493
  70.0726993  11.0341673  46.6996493  70.1956993   9.9601673  47.5436493
  70.4286993  10.6651673  47.2936493  64.5486993   8.4541673  45.9276493
  63.7016993   8.2601673  46.0086493  64.8726993   8.2891673  46.7206493
  64.4706993   8.4011673  46.0566493  61.3006993  15.1841673  36.8136493
  61.7396993  14.4871673  37.1016493  61.5076993  15.8081673  37.3866493
  61.3966993  15.1731673  36.9406493  58.3966993   8.1471673  48.2436493
  59.1186993   8.6351673  48.2066493  58.1266993   8.1171673  47.4146493
  58.4636993   8.2151673  48.1156493  61.6266993   3.3181673  44.9786493
  62.4726993   3.1281673  45.0766493  61.2566993   2.5411673  44.8406493
  61.6966993   3.1751673  44.9726493  56.4476993   4.6561673  41.6336493
  56.9366993   4.3641673  42.2946493  56.5766993   4.0631673  41.0066493
  56.5386993   4.5251673  41.6386493  60.9726993   6.0901673  37.1196493
  60.3626993   5.6851673  37.5936493  60.5866993   6.2081673  36.3466493
  60.8256993   6.0471673  37.0756493  57.7916993   9.1991673  52.5216493
  57.3706993   8.6811673  51.9606493  57.4396993   9.9851673  52.3786493
  57.6776993   9.2391673  52.4176493  62.4276993   4.5511673  39.8296493
  62.6996993   5.3771673  39.8966493  61.5646993   4.6261673  39.7336493
  62.3406993   4.6841673  39.8246493  68.8926993   5.2421673  54.5376493
  68.9656993   5.3461673  55.4006493  68.2586993   5.8001673  54.3166493
  68.8096993   5.3401673  54.6326493  70.4746993  11.9851673  38.4326493
  70.8086993  11.1791673  38.4676493  69.7196993  11.9131673  38.8626493
  70.4126993  11.8551673  38.5016493  70.9566993   3.8191673  44.0916493
  70.2116993   3.4961673  44.4096493  70.9586993   4.6451673  44.3716493
  70.8466993   3.8931673  44.1796493  67.8486993   9.8601673  37.8356493
  68.5326993   9.3461673  37.6666493  67.4316993   9.9061673  37.0706493
  67.8876993   9.7911673  37.6976493  62.5306993  11.0101673  49.1396493
  62.2326993  11.6021673  49.7066493  62.5856993  11.4521673  48.3906493
  62.4946993  11.1631673  49.1126493  60.5096993   9.9601673  52.5376493
  59.7036993   9.6701673  52.7046493  60.4206993  10.8281673  52.5436493
  60.3776993  10.0451673  52.5626493  65.0466993   7.4331673  48.6306493
  65.5226993   7.8071673  49.2586493  64.2236993   7.5671673  48.8896493
  64.9956993   7.5081673  48.7616493  61.7566993   3.0361673  51.3716493
  61.9176993   2.2921673  51.7986493  61.7116993   2.7871673  50.5366493
  61.7736993   2.8891673  51.3116493  64.3106993  14.8261673  43.8586493
  64.8566993  15.5051673  43.9126493  63.9606993  14.9081673  43.0636493
  64.3396993  14.9391673  43.7486493  62.4936993  13.0541673  47.2476493
  61.8696993  13.6361673  47.0656493  62.7416993  12.7681673  46.4616493
  62.4376993  13.0981673  47.1046493  66.8026993   9.6881673  54.2366493
  67.5596993   9.9741673  53.9106493  66.2556993   9.7401673  53.5586493
  66.8336993   9.7381673  54.0876493  70.7116993  12.2381673  52.7406493
  71.0576993  12.5081673  53.4946493  71.0056993  12.8201673  52.1606493
  70.8066993  12.3641673  52.7666493  64.0876993   7.8301673  37.1626493
  63.2826993   7.6531673  36.8776493  64.0546993   8.6811673  37.3546493
  63.9636993   7.9291673  37.1496493  60.0176993   3.8971673  47.3126493
  60.4576993   3.7941673  46.5666493  60.5626993   3.5841673  47.9176493
  60.1626993   3.8361673  47.2916493  68.0336993   2.9991673  52.9046493
  67.3856993   3.4691673  53.2526493  68.5986993   2.9101673  53.5636493
  68.0216993   3.0551673  53.0536493  67.7216993   4.5361673  49.2026493
  68.0236993   4.9561673  49.9056493  67.7576993   3.6961673  49.4346493
  67.7716993   4.4741673  49.3406493  65.1466993  14.7031673  53.1276493
  65.6246993  14.1031673  52.7116493  64.7956993  14.2601673  53.7926493
  65.1656993  14.5491673  53.1646493  70.2696993   3.9831673  41.4546493
  70.4766993   3.7821673  42.2786493  71.0256993   4.2511673  41.1126493
  70.4116993   3.9931673  41.5256493  65.2056993   9.9221673  52.1476493
  64.4106993   9.8581673  52.4986493  65.2766993  10.7691673  51.9526493
  65.0986993  10.0371673  52.1706493  61.0356993  16.1291673  47.4646493
  61.0466993  16.1881673  48.3346493  60.6106993  15.3821673  47.3146493
  60.9746993  16.0271673  47.5706493  67.9506993   9.1771673  43.6636493
  68.0266993   9.5181673  44.4626493  68.1196993   8.3301673  43.7846493
  67.9866993   9.1021673  43.7996493  65.4726993   8.4511673  43.2286493
  65.1746993   8.1361673  43.9856493  66.1676993   8.9241673  43.4636493
  65.5316993   8.4741673  43.3756493  65.6946993  12.5691673  51.2556493
  66.3816993  12.4551673  51.7806493  65.8286993  13.3601673  50.9116493
  65.8156993  12.6691673  51.2826493  68.3836993   5.8431673  51.6426493
  68.1286993   5.1241673  52.0646493  69.2046993   5.9591673  51.9126493
  68.4676993   5.7541673  51.7446493  57.7996993  15.6271673  52.9066493
  57.1456993  15.0581673  53.0046493  57.4246993  16.4001673  53.0576493
  57.6476993  15.6571673  52.9436493  66.3176993   7.0331673  54.8296493
  66.6406993   7.7191673  54.3976493  65.6136993   7.3561673  55.2316493
  66.2606993   7.1821673  54.8246493  69.4016993  15.4071673  45.7586493
  68.9506993  16.0501673  46.1376493  70.1096993  15.3281673  46.2636493
  69.4396993  15.4901673  45.8896493  66.1026993  10.4971673  48.6886493
  65.4086993  10.8991673  49.0316493  66.7796993  10.9301673  49.0276493
  66.0996993  10.6201673  48.7896493  59.1706993   4.0351673  51.0356493
  59.5456993   4.6541673  50.5486493  59.8446993   3.5611673  51.3206493
  59.3256993   4.0571673  51.0056493  56.9456993   2.4831673  50.3106493
  57.0226993   2.3141673  49.4576493  57.6916993   2.8891673  50.5076493
  57.0666993   2.5181673  50.2136493  66.4246993  12.0881673  41.8576493
  66.2196993  12.9211673  41.6986493  65.6496993  11.7061673  41.9796493
  66.2796993  12.1551673  41.8526493  56.3426993   7.7091673  50.5346493
  56.6626993   7.9281673  49.7536493  56.2426993   6.8441673  50.4796493
  56.3746993   7.6141673  50.4116493  57.7986993   3.6451673  37.1526493
  57.1266993   3.6591673  37.7086493  57.8936993   2.7971673  36.9686493
  57.7136993   3.5221673  37.2076493  61.7866993  12.3501673  38.2666493
  62.2276993  12.4301673  39.0146493  60.9816993  12.1341673  38.5246493
  61.7326993  12.3301673  38.4156493  61.1056993   7.0011673  51.9196493
  60.7096993   7.7751673  51.9946493  60.6996993   6.6281673  51.2436493
  60.9876993   7.0601673  51.8306493  70.3816993   6.0551673  46.0336493
  71.0476993   6.5961673  46.1936493  70.0366993   6.3661673  45.2946493
  70.4286993   6.1811673  45.9486493  59.1156993  11.4201673  38.8676493
  58.8716993  11.1131673  39.6476493  59.0826993  10.7171673  38.3516493
  59.0746993  11.2711673  38.9066493  61.9346993   9.6651673  37.6106493
  61.1166993   9.3971673  37.7506493  61.9066993  10.5171673  37.7956493
  61.8096993   9.7521673  37.6586493  68.3696993  11.5741673  49.5316493
  68.5756993  11.8751673  50.3236493  68.3086993  12.2961673  49.0466493
  68.3906993  11.7251673  49.5766493  67.9036993  15.7881673  53.7776493
  67.1506993  15.7701673  53.3366493  68.0716993  16.6401673  53.8616493
  67.8176993  15.9111673  53.7246493  63.1406993   5.0551673  52.9476493
  62.8186993   4.4791673  52.3776493  62.7816993   5.8101673  52.7016493
  63.0406993   5.0811673  52.8276493  61.5756993  15.4111673  53.1956493
  61.6166993  15.5371673  54.0586493  62.2266993  14.8511673  53.0396493
  61.6776993  15.3471673  53.3006493  59.1686993  13.7941673  54.5556493
  59.7636993  14.2251673  55.0276493  58.8046993  14.4181673  54.0666493
  59.2026993  13.9501673  54.5526493  67.1596993   4.7251673  44.4876493
  67.7106993   4.1181673  44.7876493  66.7346993   4.9881673  45.2026493
  67.1786993   4.6741673  44.6366493  57.4076993   3.3751673  43.9736493
  57.0396993   3.6771673  44.7046493  57.9416993   2.7461673  44.2576493
  57.4316993   3.3271673  44.1236493  57.0956993  11.7831673  51.4846493
  56.5216993  12.1991673  51.9936493  57.8286993  12.2481673  51.5796493
  57.1196993  11.9131673  51.5736493  69.1296993   6.5561673  41.0496493
  69.1976993   5.7061673  41.2306493  68.3066993   6.6421673  40.7716493
  69.0176993   6.4431673  41.0356493  58.8816993  15.0501673  40.2596493
  58.7366993  15.2061673  39.4136493  59.7476993  15.1291673  40.3376493
  58.9886993  15.0851673  40.1466493  63.0486993   7.4471673  39.9876493
  63.1486993   7.5861673  39.1326493  63.8666993   7.3871673  40.2836493
  63.1836993   7.4581673  39.9046493  68.2836993  11.7761673  39.7896493
  68.0326993  11.6481673  40.6156493  67.9666993  11.0811673  39.3686493
  68.1996993  11.6551673  39.8496493  69.8146993   8.0401673  55.5556493
  70.6856993   8.0041673  55.5196493  69.5956993   8.4601673  54.8236493
  69.9116993   8.0961673  55.4426493  59.5686993  13.8651673  46.7366493
  59.4896993  13.0551673  46.4206493  59.1246993  14.3521673  46.1646493
  59.4916993  13.8171673  46.6056493  65.1696993   9.9841673  39.2196493
  65.8866993   9.6371673  38.8636493  65.1356993  10.7841673  38.8716493
  65.2706993  10.0511673  39.1156493  57.1406993  16.1091673  50.3176493
  57.6336993  16.0531673  51.0356493  57.3286993  15.3761673  49.8826493
  57.2416993  15.9921673  50.3596493  66.3876993   5.5411673  28.1294083
  65.8636993   6.1371673  28.4924083  66.7846993   5.1731673  28.8134083
  66.3686993   5.5751673  28.2844083  56.2566993   9.6811673  23.5854083
  55.8156993   9.7991673  24.3284083  55.9736993   8.9061673  23.3004083
  56.1496993   9.5841673  23.6534083  55.9996993   3.4731673  20.0924083
  55.2216993   3.6351673  19.7324083  56.0386993   2.6021673  20.1144083
  55.8906993   3.3681673  20.0424083  59.1386993   8.7361673  18.7644083
  58.7466993   8.3651673  18.0784083  59.0586993   8.1381673  19.3934083
  59.0686993   8.5931673  18.7554083  69.0586993   6.6081673  24.8054083
  69.1386993   6.6121673  23.9364083  68.4746993   5.9761673  24.9544083
  68.9836993   6.5151673  24.6994083  58.7656993  10.3771673  22.6644083
  59.3736993  10.2071673  23.2674083  58.0146993  10.2371673  23.0854083
  58.7446993  10.3311673  22.8154083  57.6566993  13.4681673  18.7414083
  58.1236993  13.5521673  18.0094083  58.1116993  12.8901673  19.2104083
  57.7926993  13.3951673  18.7024083  56.1966993  12.4161673  29.8404083
  56.3256993  12.1361673  30.6564083  55.5866993  11.8751673  29.5314083
  56.1256993  12.2951673  29.9154083  62.7706993   9.9411673  34.9074083
  62.5346993   9.9381673  35.7474083  62.0226993   9.7931673  34.4834083
  62.6246993   9.9181673  34.9684083  57.6426993   6.9371673  24.0424083
  57.1806993   6.5451673  23.4154083  58.3426993   6.4241673  24.1344083
  57.6776993   6.8041673  23.9634083  62.7526993  13.1331673  32.1704083
  62.8906993  13.8931673  31.7634083  63.5436993  12.7681673  32.1974083
  62.8896993  13.1921673  32.1144083  59.6436993   5.0371673  24.0654083
  60.4606993   4.8501673  24.3084083  59.1666993   4.4231673  24.4614083
  59.6936993   4.9191673  24.1604083  63.8476993  11.0181673  26.6754083
  64.1956993  10.2191673  26.7054083  64.5126993  11.5221673  26.4204083
  63.9976993  10.9741673  26.6424083  63.9046993  10.4671673  22.8864083
  64.2356993   9.8231673  23.3724083  64.1446993  10.2561673  22.0754083
  63.9886993  10.3411673  22.8384083  65.8726993   4.5981673  34.2254083
  65.0246993   4.4991673  34.0474083  65.9016993   5.3431673  34.6794083
  65.7516993   4.6941673  34.2664083  56.0986993   4.6981673  27.0554083
  55.8426993   5.5291673  26.9804083  55.4346993   4.3151673  27.4724083
  55.9626993   4.7641673  27.1064083  56.0086993  14.4081673  24.9554083
  55.4166993  14.9661673  24.6424083  56.4346993  14.1391673  24.2434083
  55.9846993  14.4501673  24.8044083  61.8486993  12.2521673  22.4354083
  61.2696993  11.9771673  23.0274083  62.4726993  11.6431673  22.4604083
  61.8556993  12.1221673  22.5264083  67.9916993  14.5401673  19.9574083
  68.7186993  15.0121673  20.0594083  68.2206993  13.7461673  20.2374083
  68.1336993  14.4931673  20.0144083  66.1596993  14.9321673  21.9474083
  66.3736993  15.4591673  22.6094083  66.9266993  14.7581673  21.5684083
  66.3046993  14.9841673  21.9894083  57.5536993  13.0781673  22.8864083
  58.2096993  12.5031673  22.9014083  57.9426993  13.8271673  22.6654083
  57.7086993  13.1031673  22.8564083  68.5986993  14.9421673  30.2524083
  69.3426993  15.3981673  30.2424083  68.4776993  14.7281673  29.4154083
  68.6906993  14.9781673  30.1274083  58.3716993  11.5651673  26.3864083
  58.7946993  11.2091673  25.7124083  58.6956993  11.1431673  27.0784083
  58.4816993  11.4501673  26.3894083  61.6026993  14.4171673  25.6824083
  62.4466993  14.5211673  25.4874083  61.3056993  15.2351673  25.7504083
  61.6836993  14.5531673  25.6634083  65.4096993   3.8141673  23.7694083
  65.6966993   3.5821673  22.9794083  66.1416993   3.8931673  24.2384083
  65.5596993   3.7911673  23.7224083  66.1316993   4.1531673  18.8904083
  66.4126993   4.9411673  19.1394083  65.3556993   4.3181673  18.5274083
  66.0586993   4.2941673  18.8734083  70.1726993  16.1271673  20.3574083
  70.8376993  15.9791673  19.8124083  70.5326993  16.0441673  21.1474083
  70.3246993  16.0931673  20.3934083  60.6006993  15.6361673  31.4224083
  60.8926993  15.5691673  32.2424083  59.9746993  15.0311673  31.3774083
  60.5516993  15.5371673  31.5374083  55.5146993   1.7931673  33.4144083
  55.5106993   2.3801673  34.0604083  56.1086993   2.1051673  32.8574083
  55.6016993   1.9261673  33.4274083  67.8526993  12.1271673  33.9564083
  67.8186993  12.5091673  34.7404083  68.7066993  12.0851673  33.7854083
  67.9736993  12.1771673  34.0474083  64.9906993  12.3241673  18.7064083
  64.8096993  12.8691673  19.3634083  65.7566993  12.6141673  18.4054083
  65.0766993  12.4481673  18.7594083  58.5936993  13.7981673  30.5444083
  57.8956993  13.2901673  30.6704083  58.8536993  13.5931673  29.7364083
  58.5286993  13.6931673  30.4434083  65.7556993   2.5961673  21.0744083
  65.2476993   1.9341673  20.8204083  65.8076993   3.1001673  20.3644083
  65.6886993   2.5731673  20.9324083  66.3046993  15.2911673  31.4544083
  67.0726993  15.2111673  31.0484083  65.7216993  15.1701673  30.8164083
  66.3316993  15.2611673  31.3004083  64.3536993   1.9041673  25.4874083
  64.4276993   2.4721673  24.8294083  64.4746993   2.3961673  26.1974083
  64.3816993   2.0611673  25.4954083  69.5786993  11.7391673  23.8994083
  70.2796993  11.2571673  24.0884083  68.9186993  11.1701673  23.9444083
  69.5846993  11.5841673  23.9334083  59.9546993  12.6491673  33.1114083
  60.7956993  12.7121673  32.8894083  59.9176993  13.0461673  33.8874083
  60.0736993  12.7171673  33.1934083  61.9176993   8.1601673  27.8604083
  62.0896993   7.9501673  28.6894083  61.2626993   7.6261673  27.6444083
  61.8466993   8.0501673  27.9514083  62.6676993   8.0981673  30.4504083
  62.7206993   8.9451673  30.6524083  62.3826993   7.7281673  31.1874083
  62.6336993   8.1681673  30.5884083  68.8446993   8.7931673  29.5804083
  68.3306993   8.3811673  30.1514083  68.7186993   9.6371673  29.7614083
  68.7506993   8.8571673  29.6914083  55.4886993  12.4691673  36.6614083
  56.2446993  12.8181673  36.9194083  55.6656993  11.6161673  36.6044083
  55.6266993  12.3941673  36.6914083  59.2336993   8.9641673  25.0384083
  60.0846993   8.8841673  24.8654083  58.8766993   8.2821673  24.6264083
  59.3066993   8.8511673  24.9514083  58.0006993  15.6891673  26.2754083
  57.3276993  15.1911673  26.0304083  58.4036993  15.8741673  25.5244083
  57.9606993  15.6431673  26.1284083  57.5506993   2.6391673  28.5714083
  58.3936993   2.8591673  28.5284083  57.1616993   3.2121673  28.0404083
  57.6176993   2.7561673  28.4864083  69.9926993   5.7691673  19.2924083
  69.7726993   6.5001673  18.8704083  69.5446993   5.8201673  20.0394083
  69.8936993   5.8841673  19.3404083  61.6016993   8.9711673  23.2734083
  62.3146993   9.4661673  23.3634083  61.8236993   8.4041673  22.6474083
  61.7396993   8.9601673  23.1944083  55.7576993  10.6141673  26.5934083
  55.0906993  11.1021673  26.8694083  56.4376993  11.1591673  26.6224083
  55.7596993  10.7661673  26.6384083  63.4046993   4.3241673  36.6894083
  62.9206993   4.9011673  37.1314083  63.3766993   4.6191673  35.8684083
  63.3286993   4.4531673  36.6334083  55.8236993   7.2981673  21.6964083
  55.6386993   6.4591673  21.8484083  56.4826993   7.2621673  21.1264083
  55.8936993   7.1691673  21.6344083  66.1246993  12.6741673  25.6004083
  65.6016993  13.3081673  25.3074083  66.4346993  12.3101673  24.8714083
  66.0926993  12.7141673  25.4494083  55.9956993  11.4621673  21.2714083
  56.5476993  12.0311673  21.6354083  55.7636993  10.9471673  21.9364083
  56.0426993  11.4701673  21.4234083  60.1996993  10.4621673  28.3604083
  60.6666993  10.7511673  29.0384083  60.7716993   9.9841673  27.9064083
  60.3536993  10.4341673  28.3934083  55.8256993   9.9111673  18.8994083
  56.5816993   9.4791673  18.9574083  55.8406993  10.4431673  19.5904083
  55.9396993   9.9261673  19.0104083  56.7656993   8.1321673  26.9044083
  57.1966993   8.0031673  26.1574083  56.5606993   8.9801673  26.8784083
  56.7986993   8.2381673  26.7904083  60.8496993  11.6481673  25.1864083
  60.9756993  12.4911673  25.3734083  61.5176993  11.2491673  25.5824083
  60.9676993  11.7141673  25.2724083  58.9796993   5.1311673  35.0484083
  58.4436993   4.6251673  35.5164083  58.9996993   4.7411673  34.2684083
  58.9026993   4.9981673  35.0024083  59.4646993   4.5281673  20.1884083
  59.3366993   4.0801673  20.9264083  58.8826993   4.1861673  19.6364083
  59.3596993   4.4111673  20.2164083  59.6316993   6.3581673  26.7874083
  58.8506993   6.2991673  26.4044083  59.7036993   5.6061673  27.2244083
  59.5266993   6.2391673  26.7954083  60.0616993   6.0951673  30.2554083
  60.0866993   5.4201673  29.7044083  59.4156993   6.5911673  29.9434083
  59.9706993   6.0681673  30.1284083  69.9566993   3.8081673  28.6514083
  69.2946993   4.1361673  29.1144083  70.1436993   4.4421673  28.0824083
  69.8866993   3.9501673  28.6354083  64.1616993  14.8721673  29.6474083
  63.8846993  14.2311673  29.1244083  63.9536993  15.5981673  29.2094083
  64.0906993  14.8851673  29.5054083  68.1496993   1.7771673  22.1624083
  68.6396993   2.4941673  22.0854083  67.3596993   2.0381673  21.8994083
  68.1056993   1.9211673  22.1124083  57.8606993   7.4501673  35.8144083
  57.8236993   7.9511673  35.1004083  58.1916993   6.6981673  35.5194083
  57.9036993   7.4121673  35.6654083  69.4636993   9.6551673  34.0724083
  69.9476993  10.3731673  34.1704083  69.8576993   9.2281673  33.4214083
  69.5936993   9.6981673  33.9904083  63.7596993  12.5001673  35.2494083
  64.1136993  12.3221673  36.0264083  63.3236993  11.7711673  35.0504083
  63.7476993  12.3661673  35.3354083  64.7316993   3.2471673  27.8874083
  65.2116993   3.9461673  28.0954083  65.1046993   2.6001673  28.3384083
  64.8576993   3.2551673  27.9844083  66.9206993   6.4161673  20.1614083
  66.9126993   7.1381673  19.6714083  66.2816993   6.5511673  20.7384083
  66.8256993   6.5431673  20.1744083  67.9376993  13.3521673  27.9864083
  67.3346993  13.0561673  27.4294083  68.4826993  13.8041673  27.4774083
  67.9286993  13.3751673  27.8284083  67.9506993  10.2031673  27.3864083
  67.1536993  10.4271673  27.6604083  68.2086993   9.6091673  27.9714083
  67.8706993  10.1481673  27.5134083  61.8426993  15.0151673  21.8344083
  61.6956993  14.2391673  22.2054083  62.5316993  14.8681673  21.3194083
  61.9226993  14.8781673  21.8134083  64.1346993  14.5311673  20.2364083
  64.7566993  14.6941673  20.8264083  64.1706993  15.2221673  19.7044083
  64.2316993  14.6571673  20.2454083  67.4016993  13.5501673  36.5094083
  67.5656993  13.8331673  37.3184083  67.6646993  14.2111673  36.0044083
  67.4646993  13.6901673  36.5544083  58.6356993   7.0651673  21.0654083
  58.9596993   6.2861673  20.8434083  59.2816993   7.4331673  21.5204083
  58.7786993   7.0041673  21.0994083  66.9416993   8.0071673  31.8324083
  66.7866993   8.6171673  32.4364083  67.4756993   7.4491673  32.2384083
  66.9976993   8.0151673  31.9814083  65.3256993   6.4071673  22.4904083
  65.3846993   7.0571673  23.0694083  65.1366993   5.7111673  22.9814083
  65.3066993   6.4001673  22.6484083  70.5516993  10.7361673  28.3594083
  70.0726993  11.0341673  27.6934083  70.1956993   9.9601673  28.5374083
  70.4286993  10.6651673  28.2874083  64.5486993   8.4541673  26.9214083
  63.7016993   8.2601673  27.0024083  64.8726993   8.2891673  27.7144083
  64.4706993   8.4011673  27.0504083  61.3006993  15.1841673  17.8074083
  61.7396993  14.4871673  18.0954083  61.5076993  15.8081673  18.3804083
  61.3966993  15.1731673  17.9344083  58.3966993   8.1471673  29.2374083
  59.1186993   8.6351673  29.2004083  58.1266993   8.1171673  28.4084083
  58.4636993   8.2151673  29.1094083  61.6266993   3.3181673  25.9724083
  62.4726993   3.1281673  26.0704083  61.2566993   2.5411673  25.8344083
  61.6966993   3.1751673  25.9664083  56.4476993   4.6561673  22.6274083
  56.9366993   4.3641673  23.2884083  56.5766993   4.0631673  22.0004083
  56.5386993   4.5251673  22.6324083  60.9726993   6.0901673  18.1134083
  60.3626993   5.6851673  18.5874083  60.5866993   6.2081673  17.3404083
  60.8256993   6.0471673  18.0694083  57.7916993   9.1991673  33.5154083
  57.3706993   8.6811673  32.9544083  57.4396993   9.9851673  33.3724083
  57.6776993   9.2391673  33.4114083  62.4276993   4.5511673  20.8234083
  62.6996993   5.3771673  20.8904083  61.5646993   4.6261673  20.7274083
  62.3406993   4.6841673  20.8184083  68.8926993   5.2421673  35.5314083
  68.9656993   5.3461673  36.3944083  68.2586993   5.8001673  35.3104083
  68.8096993   5.3401673  35.6264083  70.4746993  11.9851673  19.4264083
  70.8086993  11.1791673  19.4614083  69.7196993  11.9131673  19.8564083
  70.4126993  11.8551673  19.4954083  70.9566993   3.8191673  25.0854083
  70.2116993   3.4961673  25.4034083  70.9586993   4.6451673  25.3654083
  70.8466993   3.8931673  25.1734083  67.8486993   9.8601673  18.8294083
  68.5326993   9.3461673  18.6604083  67.4316993   9.9061673  18.0644083
  67.8876993   9.7911673  18.6914083  62.5306993  11.0101673  30.1334083
  62.2326993  11.6021673  30.7004083  62.5856993  11.4521673  29.3844083
  62.4946993  11.1631673  30.1064083  60.5096993   9.9601673  33.5314083
  59.7036993   9.6701673  33.6984083  60.4206993  10.8281673  33.5374083
  60.3776993  10.0451673  33.5564083  65.0466993   7.4331673  29.6244083
  65.5226993   7.8071673  30.2524083  64.2236993   7.5671673  29.8834083
  64.9956993   7.5081673  29.7554083  61.7566993   3.0361673  32.3654083
  61.9176993   2.2921673  32.7924083  61.7116993   2.7871673  31.5304083
  61.7736993   2.8891673  32.3054083  64.3106993  14.8261673  24.8524083
  64.8566993  15.5051673  24.9064083  63.9606993  14.9081673  24.0574083
  64.3396993  14.9391673  24.7424083  62.4936993  13.0541673  28.2414083
  61.8696993  13.6361673  28.0594083  62.7416993  12.7681673  27.4554083
  62.4376993  13.0981673  28.0984083  66.8026993   9.6881673  35.2304083
  67.5596993   9.9741673  34.9044083  66.2556993   9.7401673  34.5524083
  66.8336993   9.7381673  35.0814083  70.7116993  12.2381673  33.7344083
  71.0576993  12.5081673  34.4884083  71.0056993  12.8201673  33.1544083
  70.8066993  12.3641673  33.7604083  64.0876993   7.8301673  18.1564083
  63.2826993   7.6531673  17.8714083  64.0546993   8.6811673  18.3484083
  63.9636993   7.9291673  18.1434083  60.0176993   3.8971673  28.3064083
  60.4576993   3.7941673  27.5604083  60.5626993   3.5841673  28.9114083
  60.1626993   3.8361673  28.2854083  68.0336993   2.9991673  33.8984083
  67.3856993   3.4691673  34.2464083  68.5986993   2.9101673  34.5574083
  68.0216993   3.0551673  34.0474083  67.7216993   4.5361673  30.1964083
  68.0236993   4.9561673  30.8994083  67.7576993   3.6961673  30.4284083
  67.7716993   4.4741673  30.3344083  65.1466993  14.7031673  34.1214083
  65.6246993  14.1031673  33.7054083  64.7956993  14.2601673  34.7864083
  65.1656993  14.5491673  34.1584083  70.2696993   3.9831673  22.4484083
  70.4766993   3.7821673  23.2724083  71.0256993   4.2511673  22.1064083
  70.4116993   3.9931673  22.5194083  65.2056993   9.9221673  33.1414083
  64.4106993   9.8581673  33.4924083  65.2766993  10.7691673  32.9464083
  65.0986993  10.0371673  33.1644083  61.0356993  16.1291673  28.4584083
  61.0466993  16.1881673  29.3284083  60.6106993  15.3821673  28.3084083
  60.9746993  16.0271673  28.5644083  67.9506993   9.1771673  24.6574083
  68.0266993   9.5181673  25.4564083  68.1196993   8.3301673  24.7784083
  67.9866993   9.1021673  24.7934083  65.4726993   8.4511673  24.2224083
  65.1746993   8.1361673  24.9794083  66.1676993   8.9241673  24.4574083
  65.5316993   8.4741673  24.3694083  65.6946993  12.5691673  32.2494083
  66.3816993  12.4551673  32.7744083  65.8286993  13.3601673  31.9054083
  65.8156993  12.6691673  32.2764083  68.3836993   5.8431673  32.6364083
  68.1286993   5.1241673  33.0584083  69.2046993   5.9591673  32.9064083
  68.4676993   5.7541673  32.7384083  57.7996993  15.6271673  33.9004083
  57.1456993  15.0581673  33.9984083  57.4246993  16.4001673  34.0514083
  57.6476993  15.6571673  33.9374083  66.3176993   7.0331673  35.8234083
  66.6406993   7.7191673  35.3914083  65.6136993   7.3561673  36.2254083
  66.2606993   7.1821673  35.8184083  69.4016993  15.4071673  26.7524083
  68.9506993  16.0501673  27.1314083  70.1096993  15.3281673  27.2574083
  69.4396993  15.4901673  26.8834083  66.1026993  10.4971673  29.6824083
  65.4086993  10.8991673  30.0254083  66.7796993  10.9301673  30.0214083
  66.0996993  10.6201673  29.7834083  59.1706993   4.0351673  32.0294083
  59.5456993   4.6541673  31.5424083  59.8446993   3.5611673  32.3144083
  59.3256993   4.0571673  31.9994083  56.9456993   2.4831673  31.3044083
  57.0226993   2.3141673  30.4514083  57.6916993   2.8891673  31.5014083
  57.0666993   2.5181673  31.2074083  66.4246993  12.0881673  22.8514083
  66.2196993  12.9211673  22.6924083  65.6496993  11.7061673  22.9734083
  66.2796993  12.1551673  22.8464083  56.3426993   7.7091673  31.5284083
  56.6626993   7.9281673  30.7474083  56.2426993   6.8441673  31.4734083
  56.3746993   7.6141673  31.4054083  57.7986993   3.6451673  18.1464083
  57.1266993   3.6591673  18.7024083  57.8936993   2.7971673  17.9624083
  57.7136993   3.5221673  18.2014083  61.7866993  12.3501673  19.2604083
  62.2276993  12.4301673  20.0084083  60.9816993  12.1341673  19.5184083
  61.7326993  12.3301673  19.4094083  61.1056993   7.0011673  32.9134083
  60.7096993   7.7751673  32.9884083  60.6996993   6.6281673  32.2374083
  60.9876993   7.0601673  32.8244083  70.3816993   6.0551673  27.0274083
  71.0476993   6.5961673  27.1874083  70.0366993   6.3661673  26.2884083
  70.4286993   6.1811673  26.9424083  59.1156993  11.4201673  19.8614083
  58.8716993  11.1131673  20.6414083  59.0826993  10.7171673  19.3454083
  59.0746993  11.2711673  19.9004083  61.9346993   9.6651673  18.6044083
  61.1166993   9.3971673  18.7444083  61.9066993  10.5171673  18.7894083
  61.8096993   9.7521673  18.6524083  68.3696993  11.5741673  30.5254083
  68.5756993  11.8751673  31.3174083  68.3086993  12.2961673  30.0404083
  68.3906993  11.7251673  30.5704083  67.9036993  15.7881673  34.7714083
  67.1506993  15.7701673  34.3304083  68.0716993  16.6401673  34.8554083
  67.8176993  15.9111673  34.7184083  63.1406993   5.0551673  33.9414083
  62.8186993   4.4791673  33.3714083  62.7816993   5.8101673  33.6954083
  63.0406993   5.0811673  33.8214083  61.5756993  15.4111673  34.1894083
  61.6166993  15.5371673  35.0524083  62.2266993  14.8511673  34.0334083
  61.6776993  15.3471673  34.2944083  59.1686993  13.7941673  35.5494083
  59.7636993  14.2251673  36.0214083  58.8046993  14.4181673  35.0604083
  59.2026993  13.9501673  35.5464083  67.1596993   4.7251673  25.4814083
  67.7106993   4.1181673  25.7814083  66.7346993   4.9881673  26.1964083
  67.1786993   4.6741673  25.6304083  57.4076993   3.3751673  24.9674083
  57.0396993   3.6771673  25.6984083  57.9416993   2.7461673  25.2514083
  57.4316993   3.3271673  25.1174083  57.0956993  11.7831673  32.4784083
  56.5216993  12.1991673  32.9874083  57.8286993  12.2481673  32.5734083
  57.1196993  11.9131673  32.5674083  69.1296993   6.5561673  22.0434083
  69.1976993   5.7061673  22.2244083  68.3066993   6.6421673  21.7654083
  69.0176993   6.4431673  22.0294083  58.8816993  15.0501673  21.2534083
  58.7366993  15.2061673  20.4074083  59.7476993  15.1291673  21.3314083
  58.9886993  15.0851673  21.1404083  63.0486993   7.4471673  20.9814083
  63.1486993   7.5861673  20.1264083  63.8666993   7.3871673  21.2774083
  63.1836993   7.4581673  20.8984083  68.2836993  11.7761673  20.7834083
  68.0326993  11.6481673  21.6094083  67.9666993  11.0811673  20.3624083
  68.1996993  11.6551673  20.8434083  69.8146993   8.0401673  36.5494083
  70.6856993   8.0041673  36.5134083  69.5956993   8.4601673  35.8174083
  69.9116993   8.0961673  36.4364083  59.5686993  13.8651673  27.7304083
  59.4896993  13.0551673  27.4144083  59.1246993  14.3521673  27.1584083
  59.4916993  13.8171673  27.5994083  65.1696993   9.9841673  20.2134083
  65.8866993   9.6371673  19.8574083  65.1356993  10.7841673  19.8654083
  65.2706993  10.0511673  20.1094083  57.1406993  16.1091673  31.3114083
  57.6336993  16.0531673  32.0294083  57.3286993  15.3761673  30.8764083
  57.2416993  15.9921673  31.3534083  66.3876993   5.5411673   9.1231673
  65.8636993   6.1371673   9.4861673  66.7846993   5.1731673   9.8071673
  66.3686993   5.5751673   9.2781673  56.2566993   9.6811673   4.5791673
  55.8156993   9.7991673   5.3221673  55.9736993   8.9061673   4.2941673
  56.1496993   9.5841673   4.6471673  69.0586993   6.6081673   5.7991673
  69.1386993   6.6121673   4.9301673  68.4746993   5.9761673   5.9481673
  68.9836993   6.5151673   5.6931673  58.7656993  10.3771673   3.6581673
  59.3736993  10.2071673   4.2611673  58.0146993  10.2371673   4.0791673
  58.7446993  10.3311673   3.8091673  56.1966993  12.4161673  10.8341673
  56.3256993  12.1361673  11.6501673  55.5866993  11.8751673  10.5251673
  56.1256993  12.2951673  10.9091673  62.7706993   9.9411673  15.9011673
  62.5346993   9.9381673  16.7411673  62.0226993   9.7931673  15.4771673
  62.6246993   9.9181673  15.9621673  57.6426993   6.9371673   5.0361673
  57.1806993   6.5451673   4.4091673  58.3426993   6.4241673   5.1281673
  57.6776993   6.8041673   4.9571673  62.7526993  13.1331673  13.1641673
  62.8906993  13.8931673  12.7571673  63.5436993  12.7681673  13.1911673
  62.8896993  13.1921673  13.1081673  59.6436993   5.0371673   5.0591673
  60.4606993   4.8501673   5.3021673  59.1666993   4.4231673   5.4551673
  59.6936993   4.9191673   5.1541673  63.8476993  11.0181673   7.6691673
  64.1956993  10.2191673   7.6991673  64.5126993  11.5221673   7.4141673
  63.9976993  10.9741673   7.6361673  63.9046993  10.4671673   3.8801673
  64.2356993   9.8231673   4.3661673  64.1446993  10.2561673   3.0691673
  63.9886993  10.3411673   3.8321673  65.8726993   4.5981673  15.2191673
  65.0246993   4.4991673  15.0411673  65.9016993   5.3431673  15.6731673
  65.7516993   4.6941673  15.2601673  56.0986993   4.6981673   8.0491673
  55.8426993   5.5291673   7.9741673  55.4346993   4.3151673   8.4661673
  55.9626993   4.7641673   8.1001673  56.0086993  14.4081673   5.9491673
  55.4166993  14.9661673   5.6361673  56.4346993  14.1391673   5.2371673
  55.9846993  14.4501673   5.7981673  61.8486993  12.2521673   3.4291673
  61.2696993  11.9771673   4.0211673  62.4726993  11.6431673   3.4541673
  61.8556993  12.1221673   3.5201673  66.1596993  14.9321673   2.9411673
  66.3736993  15.4591673   3.6031673  66.9266993  14.7581673   2.5621673
  66.3046993  14.9841673   2.9831673  57.5536993  13.0781673   3.8801673
  58.2096993  12.5031673   3.8951673  57.9426993  13.8271673   3.6591673
  57.7086993  13.1031673   3.8501673  68.5986993  14.9421673  11.2461673
  69.3426993  15.3981673  11.2361673  68.4776993  14.7281673  10.4091673
  68.6906993  14.9781673  11.1211673  58.3716993  11.5651673   7.3801673
  58.7946993  11.2091673   6.7061673  58.6956993  11.1431673   8.0721673
  58.4816993  11.4501673   7.3831673  61.6026993  14.4171673   6.6761673
  62.4466993  14.5211673   6.4811673  61.3056993  15.2351673   6.7441673
  61.6836993  14.5531673   6.6571673  65.4096993   3.8141673   4.7631673
  65.6966993   3.5821673   3.9731673  66.1416993   3.8931673   5.2321673
  65.5596993   3.7911673   4.7161673  60.6006993  15.6361673  12.4161673
  60.8926993  15.5691673  13.2361673  59.9746993  15.0311673  12.3711673
  60.5516993  15.5371673  12.5311673  55.5146993   1.7931673  14.4081673
  55.5106993   2.3801673  15.0541673  56.1086993   2.1051673  13.8511673
  55.6016993   1.9261673  14.4211673  67.8526993  12.1271673  14.9501673
  67.8186993  12.5091673  15.7341673  68.7066993  12.0851673  14.7791673
  67.9736993  12.1771673  15.0411673  58.5936993  13.7981673  11.5381673
  57.8956993  13.2901673  11.6641673  58.8536993  13.5931673  10.7301673
  58.5286993  13.6931673  11.4371673  65.7556993   2.5961673   2.0681673
  65.2476993   1.9341673   1.8141673  65.8076993   3.1001673   1.3581673
  65.6886993   2.5731673   1.9261673  66.3046993  15.2911673  12.4481673
  67.0726993  15.2111673  12.0421673  65.7216993  15.1701673  11.8101673
  66.3316993  15.2611673  12.2941673  64.3536993   1.9041673   6.4811673
  64.4276993   2.4721673   5.8231673  64.4746993   2.3961673   7.1911673
  64.3816993   2.0611673   6.4891673  69.5786993  11.7391673   4.8931673
  70.2796993  11.2571673   5.0821673  68.9186993  11.1701673   4.9381673
  69.5846993  11.5841673   4.9271673  59.9546993  12.6491673  14.1051673
  60.7956993  12.7121673  13.8831673  59.9176993  13.0461673  14.8811673
  60.0736993  12.7171673  14.1871673  61.9176993   8.1601673   8.8541673
  62.0896993   7.9501673   9.6831673  61.2626993   7.6261673   8.6381673
  61.8466993   8.0501673   8.9451673  62.6676993   8.0981673  11.4441673
  62.7206993   8.9451673  11.6461673  62.3826993   7.7281673  12.1811673
  62.6336993   8.1681673  11.5821673  68.8446993   8.7931673  10.5741673
  68.3306993   8.3811673  11.1451673  68.7186993   9.6371673  10.7551673
  68.7506993   8.8571673  10.6851673  55.4886993  12.4691673  17.6551673
  56.2446993  12.8181673  17.9131673  55.6656993  11.6161673  17.5981673
  55.6266993  12.3941673  17.6851673  59.2336993   8.9641673   6.0321673
  60.0846993   8.8841673   5.8591673  58.8766993   8.2821673   5.6201673
  59.3066993   8.8511673   5.9451673  58.0006993  15.6891673   7.2691673
  57.3276993  15.1911673   7.0241673  58.4036993  15.8741673   6.5181673
  57.9606993  15.6431673   7.1221673  57.5506993   2.6391673   9.5651673
  58.3936993   2.8591673   9.5221673  57.1616993   3.2121673   9.0341673
  57.6176993   2.7561673   9.4801673  61.6016993   8.9711673   4.2671673
  62.3146993   9.4661673   4.3571673  61.8236993   8.4041673   3.6411673
  61.7396993   8.9601673   4.1881673  55.7576993  10.6141673   7.5871673
  55.0906993  11.1021673   7.8631673  56.4376993  11.1591673   7.6161673
  55.7596993  10.7661673   7.6321673  63.4046993   4.3241673  17.6831673
  62.9206993   4.9011673  18.1251673  63.3766993   4.6191673  16.8621673
  63.3286993   4.4531673  17.6271673  55.8236993   7.2981673   2.6901673
  55.6386993   6.4591673   2.8421673  56.4826993   7.2621673   2.1201673
  55.8936993   7.1691673   2.6281673  66.1246993  12.6741673   6.5941673
  65.6016993  13.3081673   6.3011673  66.4346993  12.3101673   5.8651673
  66.0926993  12.7141673   6.4431673  55.9956993  11.4621673   2.2651673
  56.5476993  12.0311673   2.6291673  55.7636993  10.9471673   2.9301673
  56.0426993  11.4701673   2.4171673  60.1996993  10.4621673   9.3541673
  60.6666993  10.7511673  10.0321673  60.7716993   9.9841673   8.9001673
  60.3536993  10.4341673   9.3871673  56.7656993   8.1321673   7.8981673
  57.1966993   8.0031673   7.1511673  56.5606993   8.9801673   7.8721673
  56.7986993   8.2381673   7.7841673  60.8496993  11.6481673   6.1801673
  60.9756993  12.4911673   6.3671673  61.5176993  11.2491673   6.5761673
  60.9676993  11.7141673   6.2661673  58.9796993   5.1311673  16.0421673
  58.4436993   4.6251673  16.5101673  58.9996993   4.7411673  15.2621673
  58.9026993   4.9981673  15.9961673  59.6316993   6.3581673   7.7811673
  58.8506993   6.2991673   7.3981673  59.7036993   5.6061673   8.2181673
  59.5266993   6.2391673   7.7891673  60.0616993   6.0951673  11.2491673
  60.0866993   5.4201673  10.6981673  59.4156993   6.5911673  10.9371673
  59.9706993   6.0681673  11.1221673  69.9566993   3.8081673   9.6451673
  69.2946993   4.1361673  10.1081673  70.1436993   4.4421673   9.0761673
  69.8866993   3.9501673   9.6291673  64.1616993  14.8721673  10.6411673
  63.8846993  14.2311673  10.1181673  63.9536993  15.5981673  10.2031673
  64.0906993  14.8851673  10.4991673  68.1496993   1.7771673   3.1561673
  68.6396993   2.4941673   3.0791673  67.3596993   2.0381673   2.8931673
  68.1056993   1.9211673   3.1061673  57.8606993   7.4501673  16.8081673
  57.8236993   7.9511673  16.0941673  58.1916993   6.6981673  16.5131673
  57.9036993   7.4121673  16.6591673  69.4636993   9.6551673  15.0661673
  69.9476993  10.3731673  15.1641673  69.8576993   9.2281673  14.4151673
  69.5936993   9.6981673  14.9841673  63.7596993  12.5001673  16.2431673
  64.1136993  12.3221673  17.0201673  63.3236993  11.7711673  16.0441673
  63.7476993  12.3661673  16.3291673  64.7316993   3.2471673   8.8811673
  65.2116993   3.9461673   9.0891673  65.1046993   2.6001673   9.3321673
  64.8576993   3.2551673   8.9781673  67.9376993  13.3521673   8.9801673
  67.3346993  13.0561673   8.4231673  68.4826993  13.8041673   8.4711673
  67.9286993  13.3751673   8.8221673  67.9506993  10.2031673   8.3801673
  67.1536993  10.4271673   8.6541673  68.2086993   9.6091673   8.9651673
  67.8706993  10.1481673   8.5071673  61.8426993  15.0151673   2.8281673
  61.6956993  14.2391673   3.1991673  62.5316993  14.8681673   2.3131673
  61.9226993  14.8781673   2.8071673  67.4016993  13.5501673  17.5031673
  67.5656993  13.8331673  18.3121673  67.6646993  14.2111673  16.9981673
  67.4646993  13.6901673  17.5481673  58.6356993   7.0651673   2.0591673
  58.9596993   6.2861673   1.8371673  59.2816993   7.4331673   2.5141673
  58.7786993   7.0041673   2.0931673  66.9416993   8.0071673  12.8261673
  66.7866993   8.6171673  13.4301673  67.4756993   7.4491673  13.2321673
  66.9976993   8.0151673  12.9751673  65.3256993   6.4071673   3.4841673
  65.3846993   7.0571673   4.0631673  65.1366993   5.7111673   3.9751673
  65.3066993   6.4001673   3.6421673  70.5516993  10.7361673   9.3531673
  70.0726993  11.0341673   8.6871673  70.1956993   9.9601673   9.5311673
  70.4286993  10.6651673   9.2811673  64.5486993   8.4541673   7.9151673
  63.7016993   8.2601673   7.9961673  64.8726993   8.2891673   8.7081673
  64.4706993   8.4011673   8.0441673  58.3966993   8.1471673  10.2311673
  59.1186993   8.6351673  10.1941673  58.1266993   8.1171673   9.4021673
  58.4636993   8.2151673  10.1031673  61.6266993   3.3181673   6.9661673
  62.4726993   3.1281673   7.0641673  61.2566993   2.5411673   6.8281673
  61.6966993   3.1751673   6.9601673  56.4476993   4.6561673   3.6211673
  56.9366993   4.3641673   4.2821673  56.5766993   4.0631673   2.9941673
  56.5386993   4.5251673   3.6261673  57.7916993   9.1991673  14.5091673
  57.3706993   8.6811673  13.9481673  57.4396993   9.9851673  14.3661673
  57.6776993   9.2391673  14.4051673  62.4276993   4.5511673   1.8171673
  62.6996993   5.3771673   1.8841673  61.5646993   4.6261673   1.7211673
  62.3406993   4.6841673   1.8121673  68.8926993   5.2421673  16.5251673
  68.9656993   5.3461673  17.3881673  68.2586993   5.8001673  16.3041673
  68.8096993   5.3401673  16.6201673  70.9566993   3.8191673   6.0791673
  70.2116993   3.4961673   6.3971673  70.9586993   4.6451673   6.3591673
  70.8466993   3.8931673   6.1671673  62.5306993  11.0101673  11.1271673
  62.2326993  11.6021673  11.6941673  62.5856993  11.4521673  10.3781673
  62.4946993  11.1631673  11.1001673  60.5096993   9.9601673  14.5251673
  59.7036993   9.6701673  14.6921673  60.4206993  10.8281673  14.5311673
  60.3776993  10.0451673  14.5501673  65.0466993   7.4331673  10.6181673
  65.5226993   7.8071673  11.2461673  64.2236993   7.5671673  10.8771673
  64.9956993   7.5081673  10.7491673  61.7566993   3.0361673  13.3591673
  61.9176993   2.2921673  13.7861673  61.7116993   2.7871673  12.5241673
  61.7736993   2.8891673  13.2991673  64.3106993  14.8261673   5.8461673
  64.8566993  15.5051673   5.9001673  63.9606993  14.9081673   5.0511673
  64.3396993  14.9391673   5.7361673  62.4936993  13.0541673   9.2351673
  61.8696993  13.6361673   9.0531673  62.7416993  12.7681673   8.4491673
  62.4376993  13.0981673   9.0921673  66.8026993   9.6881673  16.2241673
  67.5596993   9.9741673  15.8981673  66.2556993   9.7401673  15.5461673
  66.8336993   9.7381673  16.0751673  70.7116993  12.2381673  14.7281673
  71.0576993  12.5081673  15.4821673  71.0056993  12.8201673  14.1481673
  70.8066993  12.3641673  14.7541673  60.0176993   3.8971673   9.3001673
  60.4576993   3.7941673   8.5541673  60.5626993   3.5841673   9.9051673
  60.1626993   3.8361673   9.2791673  68.0336993   2.9991673  14.8921673
  67.3856993   3.4691673  15.2401673  68.5986993   2.9101673  15.5511673
  68.0216993   3.0551673  15.0411673  67.7216993   4.5361673  11.1901673
  68.0236993   4.9561673  11.8931673  67.7576993   3.6961673  11.4221673
  67.7716993   4.4741673  11.3281673  65.1466993  14.7031673  15.1151673
  65.6246993  14.1031673  14.6991673  64.7956993  14.2601673  15.7801673
  65.1656993  14.5491673  15.1521673  70.2696993   3.9831673   3.4421673
  70.4766993   3.7821673   4.2661673  71.0256993   4.2511673   3.1001673
  70.4116993   3.9931673   3.5131673  65.2056993   9.9221673  14.1351673
  64.4106993   9.8581673  14.4861673  65.2766993  10.7691673  13.9401673
  65.0986993  10.0371673  14.1581673  61.0356993  16.1291673   9.4521673
  61.0466993  16.1881673  10.3221673  60.6106993  15.3821673   9.3021673
  60.9746993  16.0271673   9.5581673  67.9506993   9.1771673   5.6511673
  68.0266993   9.5181673   6.4501673  68.1196993   8.3301673   5.7721673
  67.9866993   9.1021673   5.7871673  65.4726993   8.4511673   5.2161673
  65.1746993   8.1361673   5.9731673  66.1676993   8.9241673   5.4511673
  65.5316993   8.4741673   5.3631673  65.6946993  12.5691673  13.2431673
  66.3816993  12.4551673  13.7681673  65.8286993  13.3601673  12.8991673
  65.8156993  12.6691673  13.2701673  68.3836993   5.8431673  13.6301673
  68.1286993   5.1241673  14.0521673  69.2046993   5.9591673  13.9001673
  68.4676993   5.7541673  13.7321673  57.7996993  15.6271673  14.8941673
  57.1456993  15.0581673  14.9921673  57.4246993  16.4001673  15.0451673
  57.6476993  15.6571673  14.9311673  66.3176993   7.0331673  16.8171673
  66.6406993   7.7191673  16.3851673  65.6136993   7.3561673  17.2191673
  66.2606993   7.1821673  16.8121673  69.4016993  15.4071673   7.7461673
  68.9506993  16.0501673   8.1251673  70.1096993  15.3281673   8.2511673
  69.4396993  15.4901673   7.8771673  66.1026993  10.4971673  10.6761673
  65.4086993  10.8991673  11.0191673  66.7796993  10.9301673  11.0151673
  66.0996993  10.6201673  10.7771673  59.1706993   4.0351673  13.0231673
  59.5456993   4.6541673  12.5361673  59.8446993   3.5611673  13.3081673
  59.3256993   4.0571673  12.9931673  56.9456993   2.4831673  12.2981673
  57.0226993   2.3141673  11.4451673  57.6916993   2.8891673  12.4951673
  57.0666993   2.5181673  12.2011673  66.4246993  12.0881673   3.8451673
  66.2196993  12.9211673   3.6861673  65.6496993  11.7061673   3.9671673
  66.2796993  12.1551673   3.8401673  56.3426993   7.7091673  12.5221673
  56.6626993   7.9281673  11.7411673  56.2426993   6.8441673  12.4671673
  56.3746993   7.6141673  12.3991673  61.1056993   7.0011673  13.9071673
  60.7096993   7.7751673  13.9821673  60.6996993   6.6281673  13.2311673
  60.9876993   7.0601673  13.8181673  70.3816993   6.0551673   8.0211673
  71.0476993   6.5961673   8.1811673  70.0366993   6.3661673   7.2821673
  70.4286993   6.1811673   7.9361673  68.3696993  11.5741673  11.5191673
  68.5756993  11.8751673  12.3111673  68.3086993  12.2961673  11.0341673
  68.3906993  11.7251673  11.5641673  67.9036993  15.7881673  15.7651673
  67.1506993  15.7701673  15.3241673  68.0716993  16.6401673  15.8491673
  67.8176993  15.9111673  15.7121673  63.1406993   5.0551673  14.9351673
  62.8186993   4.4791673  14.3651673  62.7816993   5.8101673  14.6891673
  63.0406993   5.0811673  14.8151673  61.5756993  15.4111673  15.1831673
  61.6166993  15.5371673  16.0461673  62.2266993  14.8511673  15.0271673
  61.6776993  15.3471673  15.2881673  59.1686993  13.7941673  16.5431673
  59.7636993  14.2251673  17.0151673  58.8046993  14.4181673  16.0541673
  59.2026993  13.9501673  16.5401673  67.1596993   4.7251673   6.4751673
  67.7106993   4.1181673   6.7751673  66.7346993   4.9881673   7.1901673
  67.1786993   4.6741673   6.6241673  57.4076993   3.3751673   5.9611673
  57.0396993   3.6771673   6.6921673  57.9416993   2.7461673   6.2451673
  57.4316993   3.3271673   6.1111673  57.0956993  11.7831673  13.4721673
  56.5216993  12.1991673  13.9811673  57.8286993  12.2481673  13.5671673
  57.1196993  11.9131673  13.5611673  69.1296993   6.5561673   3.0371673
  69.1976993   5.7061673   3.2181673  68.3066993   6.6421673   2.7591673
  69.0176993   6.4431673   3.0231673  58.8816993  15.0501673   2.2471673
  58.7366993  15.2061673   1.4011673  59.7476993  15.1291673   2.3251673
  58.9886993  15.0851673   2.1341673  68.2836993  11.7761673   1.7771673
  68.0326993  11.6481673   2.6031673  67.9666993  11.0811673   1.3561673
  68.1996993  11.6551673   1.8371673  69.8146993   8.0401673  17.5431673
  70.6856993   8.0041673  17.5071673  69.5956993   8.4601673  16.8111673
  69.9116993   8.0961673  17.4301673  59.5686993  13.8651673   8.7241673
  59.4896993  13.0551673   8.4081673  59.1246993  14.3521673   8.1521673
  59.4916993  13.8171673   8.5931673  57.1406993  16.1091673  12.3051673
  57.6336993  16.0531673  13.0231673  57.3286993  15.3761673  11.8701673
  57.2416993  15.9921673  12.3471673  47.7138553  54.0594913  80.4771313
  47.4688553  54.5474913  79.7971313  48.5768553  53.9864913  80.3771313
  47.8048553  54.1204913  80.3621313  47.5228553  60.9754913  85.1481313
  46.9988553  61.5714913  85.5111313  47.9198553  60.6074913  85.8321313
  47.5038553  61.0094913  85.3031313  37.3918553  65.1154913  80.6041313
  36.9508553  65.2334913  81.3471313  37.1088553  64.3404913  80.3191313
  37.2848553  65.0184913  80.6721313  37.1348553  58.9074913  77.1111313
  36.3568553  59.0694913  76.7511313  37.1738553  58.0364913  77.1331313
  37.0258553  58.8024913  77.0611313  40.2738553  64.1704913  75.7831313
  39.8818553  63.7994913  75.0971313  40.1938553  63.5724913  76.4121313
  40.2038553  64.0274913  75.7741313  50.1938553  62.0424913  81.8241313
  50.2738553  62.0464913  80.9551313  49.6098553  61.4104913  81.9731313
  50.1188553  61.9494913  81.7181313  39.9008553  65.8114913  79.6831313
  40.5088553  65.6414913  80.2861313  39.1498553  65.6714913  80.1041313
  39.8798553  65.7654913  79.8341313  44.1828553  55.1464913  79.6321313
  44.1128553  55.8234913  79.0861313  44.9238553  54.7584913  79.3831313
  44.2818553  55.1894913  79.5141313  37.3318553  67.8504913  86.8591313
  37.4608553  67.5704913  87.6751313  36.7218553  67.3094913  86.5501313
  37.2608553  67.7294913  86.9341313  38.7778553  62.3714913  81.0611313
  38.3158553  61.9794913  80.4341313  39.4778553  61.8584913  81.1531313
  38.8128553  62.2384913  80.9821313  43.2858553  57.9814913  86.4081313
  43.9638553  57.9994913  85.8591313  43.2408553  57.1454913  86.6531313
  43.3788553  57.8604913  86.3631313  40.7788553  60.4714913  81.0841313
  41.5958553  60.2844913  81.3271313  40.3018553  59.8574913  81.4801313
  40.8288553  60.3534913  81.1791313  44.9828553  66.4524913  83.6941313
  45.3308553  65.6534913  83.7241313  45.6478553  66.9564913  83.4391313
  45.1328553  66.4084913  83.6611313  45.0398553  65.9014913  79.9051313
  45.3708553  65.2574913  80.3911313  45.2798553  65.6904913  79.0941313
  45.1238553  65.7754913  79.8571313  41.3758553  55.5654913  80.3501313
  41.0798553  56.0664913  79.7001313  42.2428553  55.6434913  80.2931313
  41.4598553  55.6514913  80.2461313  51.5658553  52.9924913  90.3581313
  51.4078553  53.7614913  89.9761313  50.7938553  52.7724913  90.7021313
  51.4278553  53.0734913  90.3531313  44.3548553  54.7074913  82.5731313
  44.4278553  55.5674913  82.7021313  44.3168553  54.6324913  81.7051313
  44.3598553  54.8234913  82.4641313  49.0278553  57.6334913  74.8721313
  48.5778553  58.3144913  75.1791313  49.1418553  57.1294913  75.5751313
  48.9788553  57.6594913  75.0211313  37.2338553  60.1324913  84.0741313
  36.9778553  60.9634913  83.9991313  36.5698553  59.7494913  84.4911313
  37.0978553  60.1984913  84.1251313  42.9838553  67.6864913  79.4541313
  42.4048553  67.4114913  80.0461313  43.6078553  67.0774913  79.4791313
  42.9908553  67.5564913  79.5451313  40.2628553  54.9494913  84.5651313
  39.7418553  54.3214913  84.2571313  40.8538553  54.5124913  85.0361313
  40.2738553  54.7914913  84.5891313  54.4218553  57.6064913  81.1671313
  54.0758553  58.2844913  81.5931313  53.7858553  57.0084913  81.1831313
  54.2768553  57.6184913  81.2321313  39.5068553  66.9994913  83.4051313
  39.9298553  66.6434913  82.7311313  39.8308553  66.5774913  84.0971313
  39.6168553  66.8844913  83.4081313  46.5448553  59.2484913  80.7881313
  46.8318553  59.0164913  79.9981313  47.2768553  59.3274913  81.2571313
  46.6948553  59.2254913  80.7411313  47.2668553  59.5874913  75.9091313
  47.5478553  60.3754913  76.1581313  46.4908553  59.7524913  75.5461313
  47.1938553  59.7284913  75.8921313  54.0968553  55.9294913  86.5361313
  54.8538553  56.0014913  86.1081313  54.1598553  55.1564913  86.9351313
  54.2178553  55.8264913  86.5311313  36.6498553  57.2274913  90.4331313
  36.6458553  57.8144913  91.0791313  37.2438553  57.5394913  89.8761313
  36.7368553  57.3604913  90.4461313  49.6328553  55.6544913  76.7791313
  50.1728553  54.9724913  76.8551313  49.6948553  56.0524913  77.5531313
  49.7218553  55.6124913  76.9051313  37.5868553  56.8224913  79.3481313
  37.4728553  55.9584913  79.3791313  37.1118553  57.1164913  80.0181313
  37.4998553  56.7384913  79.4511313  46.8908553  58.0304913  78.0931313
  46.3828553  57.3684913  77.8391313  46.9428553  58.5344913  77.3831313
  46.8238553  58.0074913  77.9511313  46.8908553  54.9714913  77.9841313
  46.4358553  54.5694913  77.3581313  47.6638553  55.1264913  77.6091313
  46.9378553  54.9354913  77.8361313  45.4888553  57.3384913  82.5061313
  45.5628553  57.9064913  81.8481313  45.6098553  57.8304913  83.2161313
  45.5168553  57.4954913  82.5141313  50.7138553  67.1734913  80.9181313
  51.4148553  66.6914913  81.1071313  50.0538553  66.6044913  80.9631313
  50.7198553  67.0184913  80.9521313  40.0968553  53.1614913  80.8541313
  40.6328553  53.8494913  80.8441313  40.0998553  52.8874913  80.0261313
  40.1758553  53.2224913  80.7301313  43.0528553  63.5944913  84.8791313
  43.2248553  63.3844913  85.7081313  42.3978553  63.0604913  84.6631313
  42.9818553  63.4844913  84.9701313  49.2808553  57.5084913  88.3941313
  49.1858553  57.8274913  89.2001313  48.6878553  56.8694913  88.3561313
  49.1788553  57.4604913  88.5081313  43.8028553  63.5324913  87.4691313
  43.8558553  64.3794913  87.6711313  43.5178553  63.1624913  88.2061313
  43.7688553  63.6024913  87.6071313  49.9798553  64.2274913  86.5991313
  49.4658553  63.8154913  87.1701313  49.8538553  65.0714913  86.7801313
  49.8858553  64.2914913  86.7101313  50.5368553  53.4524913  81.2301313
  50.5858553  53.1344913  82.0411313  50.8598553  52.8084913  80.7371313
  50.5918553  53.3104913  81.2771313  53.0008553  57.6884913  89.5381313
  53.7728553  57.4634913  89.8751313  52.5258553  57.9054913  90.2381313
  53.0448553  57.6874913  89.6911313  40.5448553  56.9714913  82.5081313
  40.8168553  56.5414913  81.8001313  40.3688553  56.3354913  83.0791313
  40.5588553  56.8144913  82.4881313  53.2328553  64.6664913  76.7261313
  53.3518553  64.3794913  77.5411313  54.0398553  64.6874913  76.3961313
  53.3688553  64.6274913  76.7981313  40.3688553  64.3984913  82.0571313
  41.2198553  64.3184913  81.8841313  40.0118553  63.7164913  81.6451313
  40.4418553  64.2854913  81.9701313  38.6858553  58.0734913  85.5901313
  39.5288553  58.2934913  85.5471313  38.2968553  58.6464913  85.0591313
  38.7528553  58.1904913  85.5051313  51.1278553  61.2034913  76.3111313
  50.9078553  61.9344913  75.8891313  50.6798553  61.2544913  77.0581313
  51.0288553  61.3184913  76.3591313  42.7368553  64.4054913  80.2921313
  43.4498553  64.9004913  80.3821313  42.9588553  63.8384913  79.6661313
  42.8748553  64.3944913  80.2131313  55.3148553  56.0644913  75.7641313
  54.6528553  55.4964913  75.7871313  55.1218553  56.5764913  75.0841313
  55.1888553  56.0564913  75.6671313  36.8928553  66.0484913  83.6121313
  36.2258553  66.5364913  83.8881313  37.5728553  66.5934913  83.6411313
  36.8948553  66.2004913  83.6571313  55.6378553  60.4424913  88.3201313
  55.8528553  59.6424913  88.0441313  54.7878553  60.5024913  88.1311313
  55.5438553  60.3334913  88.2511313  36.9588553  62.7324913  78.7151313
  36.7738553  61.8934913  78.8671313  37.6178553  62.6964913  78.1451313
  37.0288553  62.6034913  78.6531313  53.3168553  55.6224913  78.0431313
  54.0628553  55.2154913  78.2421313  53.5798553  56.3374913  77.6181313
  53.4658553  55.6684913  78.0101313  37.1308553  66.8964913  78.2901313
  37.6828553  67.4654913  78.6541313  36.8988553  66.3814913  78.9551313
  37.1778553  66.9044913  78.4421313  41.3348553  65.8964913  85.3791313
  41.8018553  66.1854913  86.0571313  41.9068553  65.4184913  84.9251313
  41.4888553  65.8684913  85.4121313  49.7708553  57.9104913  83.1161313
  50.1148553  58.0624913  83.9031313  49.3178553  57.1724913  83.2291313
  49.7548553  57.8234913  83.2491313  36.9608553  65.3454913  75.9181313
  37.7168553  64.9134913  75.9761313  36.9758553  65.8774913  76.6091313
  37.0748553  65.3604913  76.0291313  37.9008553  63.5664913  83.9231313
  38.3318553  63.4374913  83.1761313  37.6958553  64.4144913  83.8971313
  37.9338553  63.6724913  83.8091313  44.2468553  57.1304913  77.5731313
  44.2448553  57.0134913  76.7081313  44.0658553  57.9784913  77.6651313
  44.2198553  57.2384913  77.4591313  41.9848553  67.0824913  82.2051313
  42.1108553  67.9254913  82.3921313  42.6528553  66.6834913  82.6011313
  42.1028553  67.1484913  82.2911313  40.5998553  59.9624913  77.2071313
  40.4718553  59.5144913  77.9451313  40.0178553  59.6204913  76.6551313
  40.4948553  59.8454913  77.2351313  40.7668553  61.7924913  83.8061313
  39.9858553  61.7334913  83.4231313  40.8388553  61.0404913  84.2431313
  40.6618553  61.6734913  83.8141313  41.1968553  61.5294913  87.2741313
  41.2218553  60.8544913  86.7231313  40.5508553  62.0254913  86.9621313
  41.1058553  61.5024913  87.1471313  51.0918553  59.2424913  85.6701313
  50.4298553  59.5704913  86.1331313  51.2788553  59.8764913  85.1011313
  51.0218553  59.3844913  85.6541313  47.7368553  55.1484913  89.0991313
  47.8858553  54.3234913  88.8561313  48.1158553  55.2034913  89.8831313
  47.8148553  55.0344913  89.1791313  49.2848553  57.2114913  79.1811313
  49.7748553  57.9284913  79.1041313  48.4948553  57.4724913  78.9181313
  49.2408553  57.3554913  79.1311313  50.5988553  65.0894913  91.0911313
  51.0828553  65.8074913  91.1891313  50.9928553  64.6624913  90.4401313
  50.7288553  65.1324913  91.0091313  45.8668553  58.6814913  84.9061313
  46.3468553  59.3804913  85.1141313  46.2398553  58.0344913  85.3571313
  45.9928553  58.6894913  85.0031313  48.0558553  61.8504913  77.1801313
  48.0478553  62.5724913  76.6901313  47.4168553  61.9854913  77.7571313
  47.9608553  61.9774913  77.1931313  53.0278553  65.7204913  81.1611313
  53.3838553  65.3704913  81.8761313  53.0198553  65.0594913  80.5911313
  53.0798553  65.5704913  81.1821313  49.0858553  65.6374913  84.4051313
  48.2888553  65.8614913  84.6791313  49.3438553  65.0434913  84.9901313
  49.0058553  65.5824913  84.5321313  42.6488553  54.1924913  76.8411313
  42.7458553  54.0854913  77.7021313  41.9408553  54.6984913  76.7761313
  42.5588553  54.2514913  76.9591313  52.3458553  63.6354913  89.2511313
  52.4008553  63.7604913  88.3891313  53.0988553  63.9554913  89.5531313
  52.4648553  63.7004913  89.1681313  39.7708553  62.4994913  78.0841313
  40.0948553  61.7204913  77.8621313  40.4168553  62.8674913  78.5391313
  39.9138553  62.4384913  78.1181313  48.0768553  63.4414913  88.8511313
  47.9218553  64.0514913  89.4551313  48.6108553  62.8834913  89.2571313
  48.1328553  63.4494913  89.0001313  36.7678553  54.1604913  79.0521313
  36.8968553  53.4524913  78.5601313  36.4008553  53.8424913  79.7771313
  36.7328553  54.0084913  79.0871313  46.4608553  61.8414913  79.5091313
  46.5198553  62.4914913  80.0881313  46.2718553  61.1454913  80.0001313
  46.4418553  61.8344913  79.6671313  51.6868553  66.1704913  85.3781313
  51.2078553  66.4684913  84.7121313  51.3308553  65.3944913  85.5561313
  51.5638553  66.0994913  85.3061313  40.9568553  56.3584913  76.0211313
  40.4458553  56.4114913  75.3151313  41.7408553  56.5984913  75.7251313
  40.9968553  56.4014913  75.8731313  45.6838553  63.8884913  83.9401313
  44.8368553  63.6944913  84.0211313  46.0078553  63.7234913  84.7331313
  45.6058553  63.8354913  84.0691313  39.5318553  63.5814913  86.2561313
  40.2538553  64.0694913  86.2191313  39.2618553  63.5514913  85.4271313
  39.5988553  63.6494913  86.1281313  42.7618553  58.7524913  82.9911313
  43.6078553  58.5624913  83.0891313  42.3918553  57.9754913  82.8531313
  42.8318553  58.6094913  82.9851313  37.5828553  60.0904913  79.6461313
  38.0718553  59.7984913  80.3071313  37.7118553  59.4974913  79.0191313
  37.6738553  59.9594913  79.6511313  52.6178553  63.1124913  86.4971313
  52.6108553  62.3364913  86.8951313  51.7768553  63.3464913  86.4901313
  52.4928553  63.0324913  86.5551313  42.1078553  61.5244913  75.1321313
  41.4978553  61.1194913  75.6061313  41.7218553  61.6424913  74.3591313
  41.9608553  61.4814913  75.0881313  38.9268553  64.6334913  90.5341313
  38.5058553  64.1154913  89.9731313  38.5748553  65.4194913  90.3911313
  38.8128553  64.6734913  90.4301313  53.8738553  63.1834913  83.9341313
  53.5878553  63.5844913  84.6541313  54.7338553  63.1214913  84.0611313
  53.9588553  63.2334913  84.0591313  43.5628553  59.9854913  77.8421313
  43.8348553  60.8114913  77.9091313  42.6998553  60.0604913  77.7461313
  43.4758553  60.1184913  77.8371313  37.0428553  55.9554913  84.3781313
  37.0868553  56.2994913  83.5771313  37.7978553  56.1924913  84.7451313
  37.1608553  56.0414913  84.3141313  51.6098553  67.4194913  76.4451313
  51.9438553  66.6134913  76.4801313  50.8548553  67.3474913  76.8751313
  51.5478553  67.2894913  76.5141313  52.0918553  59.2534913  82.1041313
  51.3468553  58.9304913  82.4221313  52.0938553  60.0794913  82.3841313
  51.9818553  59.3274913  82.1921313  54.5318553  65.2134913  89.8561313
  55.1598553  64.6644913  89.6001313  54.4708553  65.7784913  89.1941313
  54.6158553  65.2164913  89.7201313  48.9838553  65.2944913  75.8481313
  49.6678553  64.7804913  75.6791313  48.5668553  65.3404913  75.0831313
  49.0228553  65.2254913  75.7101313  43.6658553  66.4444913  87.1521313
  43.3678553  67.0364913  87.7191313  43.7208553  66.8864913  86.4031313
  43.6298553  66.5974913  87.1251313  41.6448553  65.3944913  90.5501313
  40.8388553  65.1044913  90.7171313  41.5558553  66.2624913  90.5561313
  41.5128553  65.4794913  90.5751313  51.0038553  55.5834913  89.5651313
  51.7478553  56.0354913  89.5021313  50.4378553  56.0534913  89.0961313
  51.0308553  55.7204913  89.4871313  46.1818553  62.8674913  86.6431313
  46.6578553  63.2414913  87.2711313  45.3588553  63.0014913  86.9021313
  46.1308553  62.9424913  86.7741313  42.8918553  58.4704913  89.3841313
  43.0528553  57.7264913  89.8111313  42.8468553  58.2214913  88.5491313
  42.9088553  58.3234913  89.3241313  52.2888553  53.5634913  87.2351313
  52.0088553  54.3884913  87.1911313  53.0048553  53.6164913  87.7311313
  52.3538553  53.6934913  87.3021313  44.6438553  54.2784913  89.2641313
  45.3488553  54.5984913  88.8621313  44.8848553  53.4714913  89.4911313
  44.7828553  54.2064913  89.2381313  53.7098553  59.8184913  76.0921313
  54.0878553  60.4954913  75.6921313  52.8678553  60.0424913  76.1231313
  53.6408553  59.9514913  76.0371313  45.2228553  63.2644913  75.1751313
  44.4178553  63.0874913  74.8901313  45.1898553  64.1154913  75.3671313
  45.0988553  63.3634913  75.1621313  41.1528553  59.3314913  85.3251313
  41.5928553  59.2284913  84.5791313  41.6978553  59.0184913  85.9301313
  41.2978553  59.2704913  85.3041313  48.8568553  59.9704913  87.2151313
  49.1588553  60.3904913  87.9181313  48.8928553  59.1304913  87.4471313
  48.9068553  59.9084913  87.3531313  51.4048553  59.4174913  79.4671313
  51.6118553  59.2164913  80.2911313  52.1608553  59.6854913  79.1251313
  51.5468553  59.4274913  79.5381313  44.6998553  54.3164913  85.3721313
  43.8738553  54.1674913  85.6091313  44.6598553  54.3514913  84.5011313
  44.5718553  54.2994913  85.2781313  52.4268553  55.5004913  80.9411313
  51.7128553  55.0294913  81.1121313  52.2648553  55.8414913  80.1551313
  52.2978553  55.4814913  80.8501313  52.8698553  63.4444913  79.3211313
  53.3458553  62.7154913  79.2731313  52.0488553  63.1584913  79.2451313
  52.8188553  63.2944913  79.3021313  46.3408553  65.3564913  90.1601313
  45.5458553  65.2924913  90.5111313  46.4118553  66.2034913  89.9651313
  46.2338553  65.4714913  90.1831313  40.3288553  57.4584913  78.6321313
  40.4548553  57.1294913  77.8341313  39.5168553  57.2094913  78.8311313
  40.2278553  57.3734913  78.5441313  49.0858553  64.6114913  81.6761313
  49.1618553  64.9524913  82.4751313  49.2548553  63.7644913  81.7971313
  49.1218553  64.5364913  81.8121313  46.6078553  63.8854913  81.2411313
  46.3098553  63.5704913  81.9981313  47.3028553  64.3584913  81.4761313
  46.6668553  63.9084913  81.3881313  55.0058553  60.6124913  91.0791313
  54.1508553  60.4904913  91.2051313  55.1588553  60.2174913  90.3161313
  54.9018553  60.5354913  90.9851313  49.5188553  61.2774913  89.6551313
  49.2638553  60.5584913  90.0771313  50.3398553  61.3934913  89.9251313
  49.6028553  61.1884913  89.7571313  47.2378553  65.9314913  86.7011313
  46.5438553  66.3334913  87.0441313  47.9148553  66.3644913  87.0401313
  47.2348553  66.0544913  86.8021313  40.3058553  59.4694913  89.0481313
  40.6808553  60.0884913  88.5611313  40.9798553  58.9954913  89.3331313
  40.4608553  59.4914913  89.0181313  38.0808553  57.9174913  88.3231313
  38.1578553  57.7484913  87.4701313  38.8268553  58.3234913  88.5201313
  38.2018553  57.9524913  88.2261313  53.6398553  60.5574913  78.7631313
  53.7428553  60.4994913  77.8991313  54.3808553  60.2254913  79.0811313
  53.7648553  60.5004913  78.6821313  40.6348553  55.3274913  90.7341313
  40.5538553  54.4834913  90.9401313  40.3208553  55.3714913  89.9211313
  40.5768553  55.2094913  90.6441313  52.7418553  60.7034913  88.1191313
  52.7398553  59.8404913  88.2431313  52.8088553  61.0274913  88.9261313
  52.7518553  60.6234913  88.2561313  37.4778553  63.1434913  88.5471313
  37.7978553  63.3624913  87.7661313  37.3778553  62.2784913  88.4921313
  37.5098553  63.0484913  88.4241313  38.9338553  59.0794913  75.1651313
  38.2618553  59.0934913  75.7211313  39.0288553  58.2314913  74.9811313
  38.8488553  58.9564913  75.2201313  47.6148553  55.6934913  82.7551313
  46.9148553  56.2114913  82.6991313  47.6528553  55.3134913  81.9711313
  47.5168553  55.7144913  82.6311313  42.9218553  67.7844913  76.2791313
  43.3628553  67.8644913  77.0271313  42.1168553  67.5684913  76.5371313
  42.8678553  67.7644913  76.4281313  51.2128553  56.2094913  85.5551313
  52.0678553  56.3084913  85.7001313  50.8438553  56.7624913  86.1201313
  51.2848553  56.3064913  85.6601313  42.2408553  62.4354913  89.9321313
  41.8448553  63.2094913  90.0071313  41.8348553  62.0624913  89.2561313
  42.1228553  62.4944913  89.8431313  51.5168553  61.4894913  84.0461313
  52.1828553  62.0304913  84.2061313  51.1718553  61.8004913  83.3071313
  51.5638553  61.6154913  83.9611313  40.2508553  66.8544913  76.8801313
  40.0068553  66.5474913  77.6601313  40.2178553  66.1514913  76.3641313
  40.2098553  66.7054913  76.9191313  43.0698553  65.0994913  75.6231313
  42.2518553  64.8314913  75.7631313  43.0418553  65.9514913  75.8081313
  42.9448553  65.1864913  75.6711313  42.6698553  55.4124913  87.3821313
  41.8058553  55.4964913  87.4621313  42.8898553  54.8984913  88.0511313
  42.5748553  55.3494913  87.4931313  54.6878553  54.0474913  88.7111313
  54.6358553  54.0034913  89.5811313  55.3748553  53.5444913  88.5211313
  54.7818553  53.9674913  88.8111313  46.7728553  56.1604913  85.7561313
  46.0358553  55.7064913  85.8691313  47.3438553  55.7584913  86.2791313
  46.7478553  56.0334913  85.8501313  49.5048553  67.0084913  87.5441313
  49.7108553  67.3094913  88.3361313  49.4438553  67.7304913  87.0591313
  49.5258553  67.1594913  87.5891313  44.2758553  60.4894913  90.9601313
  43.9538553  59.9134913  90.3901313  43.9168553  61.2444913  90.7141313
  44.1758553  60.5154913  90.8401313  45.0718553  53.7414913  75.5871313
  45.1498553  53.9884913  74.7541313  44.3288553  54.1184913  75.8451313
  44.9738553  53.8334913  75.5021313  54.3168553  65.6474913  87.0021313
  54.2848553  64.7854913  86.8671313  53.6238553  65.9494913  86.5681313
  54.2098553  65.5644913  86.9181313  39.8898553  55.4954913  88.0301313
  39.5468553  54.7284913  87.7961313  39.1948553  56.0194913  88.0941313
  39.7368553  55.4594913  88.0051313  48.9358553  54.3514913  85.0071313
  49.6058553  54.8954913  85.1341313  48.4328553  54.7754913  84.4341313
  48.9608553  54.4944913  84.9411313  48.2948553  60.1594913  82.5001313
  48.8458553  59.5524913  82.8001313  47.8698553  60.4224913  83.2151313
  48.3138553  60.1084913  82.6491313  38.5428553  58.8094913  81.9861313
  38.1748553  59.1114913  82.7171313  39.0768553  58.1804913  82.2701313
  38.5668553  58.7614913  82.1361313  38.2308553  67.2174913  89.4971313
  37.6568553  67.6334913  90.0061313  38.9638553  67.6824913  89.5921313
  38.2548553  67.3474913  89.5861313  50.2648553  61.9904913  79.0621313
  50.3328553  61.1404913  79.2431313  49.4418553  62.0764913  78.7841313
  50.1528553  61.8774913  79.0481313  44.1838553  62.8814913  78.0001313
  44.2838553  63.0204913  77.1451313  45.0018553  62.8214913  78.2961313
  44.3188553  62.8924913  77.9171313  49.4188553  67.2104913  77.8021313
  49.1678553  67.0824913  78.6281313  49.1018553  66.5154913  77.3811313
  49.3348553  67.0894913  77.8621313  54.0628553  58.8684913  85.9221313
  53.2298553  59.1184913  85.8501313  54.0068553  58.0284913  86.1511313
  53.9318553  58.7814913  85.9451313  43.3228553  55.8564913  91.1161313
  43.5568553  55.2804913  90.5031313  42.4808553  55.6754913  91.2571313
  43.2328553  55.7444913  91.0461313  46.3048553  65.4184913  77.2321313
  47.0218553  65.0714913  76.8761313  46.2708553  66.2184913  76.8841313
  46.4058553  65.4854913  77.1281313  47.7138553  54.0594913  61.4708903
  47.4688553  54.5474913  60.7908903  48.5768553  53.9864913  61.3708903
  47.8048553  54.1204913  61.3558903  47.5228553  60.9754913  66.1418903
  46.9988553  61.5714913  66.5048903  47.9198553  60.6074913  66.8258903
  47.5038553  61.0094913  66.2968903  37.3918553  65.1154913  61.5978903
  36.9508553  65.2334913  62.3408903  37.1088553  64.3404913  61.3128903
  37.2848553  65.0184913  61.6658903  37.1348553  58.9074913  58.1048903
  36.3568553  59.0694913  57.7448903  37.1738553  58.0364913  58.1268903
  37.0258553  58.8024913  58.0548903  40.2738553  64.1704913  56.7768903
  39.8818553  63.7994913  56.0908903  40.1938553  63.5724913  57.4058903
  40.2038553  64.0274913  56.7678903  50.1938553  62.0424913  62.8178903
  50.2738553  62.0464913  61.9488903  49.6098553  61.4104913  62.9668903
  50.1188553  61.9494913  62.7118903  39.9008553  65.8114913  60.6768903
  40.5088553  65.6414913  61.2798903  39.1498553  65.6714913  61.0978903
  39.8798553  65.7654913  60.8278903  44.1828553  55.1464913  60.6258903
  44.1128553  55.8234913  60.0798903  44.9238553  54.7584913  60.3768903
  44.2818553  55.1894913  60.5078903  37.3318553  67.8504913  67.8528903
  37.4608553  67.5704913  68.6688903  36.7218553  67.3094913  67.5438903
  37.2608553  67.7294913  67.9278903  43.9058553  65.3754913  72.9198903
  43.6698553  65.3724913  73.7598903  43.1578553  65.2274913  72.4958903
  43.7598553  65.3524913  72.9808903  38.7778553  62.3714913  62.0548903
  38.3158553  61.9794913  61.4278903  39.4778553  61.8584913  62.1468903
  38.8128553  62.2384913  61.9758903  43.2858553  57.9814913  67.4018903
  43.9638553  57.9994913  66.8528903  43.2408553  57.1454913  67.6468903
  43.3788553  57.8604913  67.3568903  40.7788553  60.4714913  62.0778903
  41.5958553  60.2844913  62.3208903  40.3018553  59.8574913  62.4738903
  40.8288553  60.3534913  62.1728903  44.9828553  66.4524913  64.6878903
  45.3308553  65.6534913  64.7178903  45.6478553  66.9564913  64.4328903
  45.1328553  66.4084913  64.6548903  45.0398553  65.9014913  60.8988903
  45.3708553  65.2574913  61.3848903  45.2798553  65.6904913  60.0878903
  45.1238553  65.7754913  60.8508903  47.0078553  60.0324913  72.2378903
  46.1598553  59.9334913  72.0598903  47.0368553  60.7774913  72.6918903
  46.8868553  60.1284913  72.2788903  41.3758553  55.5654913  61.3438903
  41.0798553  56.0664913  60.6938903  42.2428553  55.6434913  61.2868903
  41.4598553  55.6514913  61.2398903  51.5658553  52.9924913  71.3518903
  51.4078553  53.7614913  70.9698903  50.7938553  52.7724913  71.6958903
  51.4278553  53.0734913  71.3468903  44.3548553  54.7074913  63.5668903
  44.4278553  55.5674913  63.6958903  44.3168553  54.6324913  62.6988903
  44.3598553  54.8234913  63.4578903  49.0278553  57.6334913  55.8658903
  48.5778553  58.3144913  56.1728903  49.1418553  57.1294913  56.5688903
  48.9788553  57.6594913  56.0148903  37.2338553  60.1324913  65.0678903
  36.9778553  60.9634913  64.9928903  36.5698553  59.7494913  65.4848903
  37.0978553  60.1984913  65.1188903  42.9838553  67.6864913  60.4478903
  42.4048553  67.4114913  61.0398903  43.6078553  67.0774913  60.4728903
  42.9908553  67.5564913  60.5388903  40.2628553  54.9494913  65.5588903
  39.7418553  54.3214913  65.2508903  40.8538553  54.5124913  66.0298903
  40.2738553  54.7914913  65.5828903  43.5688553  57.0824913  74.8568903
  43.6858553  56.6284913  74.1208903  43.8568553  57.8804913  74.6538903
  43.6288553  57.1334913  74.7178903  54.4218553  57.6064913  62.1608903
  54.0758553  58.2844913  62.5868903  53.7858553  57.0084913  62.1768903
  54.2768553  57.6184913  62.2258903  39.3018553  56.6794913  73.8408903
  38.5238553  56.2894913  73.7688903  39.7928553  56.2674913  73.2498903
  39.2588553  56.5604913  73.7428903  39.5068553  66.9994913  64.3988903
  39.9298553  66.6434913  63.7248903  39.8308553  66.5774913  65.0908903
  39.6168553  66.8844913  64.4018903  45.9508553  54.3224913  73.0088903
  46.1288553  53.5134913  72.7338903  45.8078553  54.7634913  72.2698903
  45.9558553  54.2684913  72.8588903  46.5448553  59.2484913  61.7818903
  46.8318553  59.0164913  60.9918903  47.2768553  59.3274913  62.2508903
  46.6948553  59.2254913  61.7348903  47.2668553  59.5874913  56.9028903
  47.5478553  60.3754913  57.1518903  46.4908553  59.7524913  56.5398903
  47.1938553  59.7284913  56.8858903  54.0968553  55.9294913  67.5298903
  54.8538553  56.0014913  67.1018903  54.1598553  55.1564913  67.9288903
  54.2178553  55.8264913  67.5248903  36.6498553  57.2274913  71.4268903
  36.6458553  57.8144913  72.0728903  37.2438553  57.5394913  70.8698903
  36.7368553  57.3604913  71.4398903  48.9878553  67.5614913  71.9688903
  48.9538553  67.9434913  72.7528903  49.8418553  67.5194913  71.7978903
  49.1088553  67.6114913  72.0598903  49.6328553  55.6544913  57.7728903
  50.1728553  54.9724913  57.8488903  49.6948553  56.0524913  58.5468903
  49.7218553  55.6124913  57.8988903  37.5868553  56.8224913  60.3418903
  37.4728553  55.9584913  60.3728903  37.1118553  57.1164913  61.0118903
  37.4998553  56.7384913  60.4448903  46.8908553  58.0304913  59.0868903
  46.3828553  57.3684913  58.8328903  46.9428553  58.5344913  58.3768903
  46.8238553  58.0074913  58.9448903  46.8908553  54.9714913  58.9778903
  46.4358553  54.5694913  58.3518903  47.6638553  55.1264913  58.6028903
  46.9378553  54.9354913  58.8298903  45.4888553  57.3384913  63.4998903
  45.5628553  57.9064913  62.8418903  45.6098553  57.8304913  64.2098903
  45.5168553  57.4954913  63.5078903  50.7138553  67.1734913  61.9118903
  51.4148553  66.6914913  62.1008903  50.0538553  66.6044913  61.9568903
  50.7198553  67.0184913  61.9458903  40.0968553  53.1614913  61.8478903
  40.6328553  53.8494913  61.8378903  40.0998553  52.8874913  61.0198903
  40.1758553  53.2224913  61.7238903  43.0528553  63.5944913  65.8728903
  43.2248553  63.3844913  66.7018903  42.3978553  63.0604913  65.6568903
  42.9818553  63.4844913  65.9638903  49.2808553  57.5084913  69.3878903
  49.1858553  57.8274913  70.1938903  48.6878553  56.8694913  69.3498903
  49.1788553  57.4604913  69.5018903  43.8028553  63.5324913  68.4628903
  43.8558553  64.3794913  68.6648903  43.5178553  63.1624913  69.1998903
  43.7688553  63.6024913  68.6008903  49.9798553  64.2274913  67.5928903
  49.4658553  63.8154913  68.1638903  49.8538553  65.0714913  67.7738903
  49.8858553  64.2914913  67.7038903  50.5368553  53.4524913  62.2238903
  50.5858553  53.1344913  63.0348903  50.8598553  52.8084913  61.7308903
  50.5918553  53.3104913  62.2708903  53.0008553  57.6884913  70.5318903
  53.7728553  57.4634913  70.8688903  52.5258553  57.9054913  71.2318903
  53.0448553  57.6874913  70.6848903  40.5448553  56.9714913  63.5018903
  40.8168553  56.5414913  62.7938903  40.3688553  56.3354913  64.0728903
  40.5588553  56.8144913  63.4818903  53.2328553  64.6664913  57.7198903
  53.3518553  64.3794913  58.5348903  54.0398553  64.6874913  57.3898903
  53.3688553  64.6274913  57.7918903  40.3688553  64.3984913  63.0508903
  41.2198553  64.3184913  62.8778903  40.0118553  63.7164913  62.6388903
  40.4418553  64.2854913  62.9638903  38.6858553  58.0734913  66.5838903
  39.5288553  58.2934913  66.5408903  38.2968553  58.6464913  66.0528903
  38.7528553  58.1904913  66.4988903  51.1278553  61.2034913  57.3048903
  50.9078553  61.9344913  56.8828903  50.6798553  61.2544913  58.0518903
  51.0288553  61.3184913  57.3528903  42.7368553  64.4054913  61.2858903
  43.4498553  64.9004913  61.3758903  42.9588553  63.8384913  60.6598903
  42.8748553  64.3944913  61.2068903  55.3148553  56.0644913  56.7578903
  54.6528553  55.4964913  56.7808903  55.1218553  56.5764913  56.0778903
  55.1888553  56.0564913  56.6608903  36.8928553  66.0484913  64.6058903
  36.2258553  66.5364913  64.8818903  37.5728553  66.5934913  64.6348903
  36.8948553  66.2004913  64.6508903  44.5398553  59.7584913  74.7018903
  44.0558553  60.3354913  75.1438903  44.5118553  60.0534913  73.8808903
  44.4638553  59.8874913  74.6458903  55.6378553  60.4424913  69.3138903
  55.8528553  59.6424913  69.0378903  54.7878553  60.5024913  69.1248903
  55.5438553  60.3334913  69.2448903  36.9588553  62.7324913  59.7088903
  36.7738553  61.8934913  59.8608903  37.6178553  62.6964913  59.1388903
  37.0288553  62.6034913  59.6468903  53.3168553  55.6224913  59.0368903
  54.0628553  55.2154913  59.2358903  53.5798553  56.3374913  58.6118903
  53.4658553  55.6684913  59.0038903  37.1308553  66.8964913  59.2838903
  37.6828553  67.4654913  59.6478903  36.8988553  66.3814913  59.9488903
  37.1778553  66.9044913  59.4358903  41.3348553  65.8964913  66.3728903
  41.8018553  66.1854913  67.0508903  41.9068553  65.4184913  65.9188903
  41.4888553  65.8684913  66.4058903  49.7708553  57.9104913  64.1098903
  50.1148553  58.0624913  64.8968903  49.3178553  57.1724913  64.2228903
  49.7548553  57.8234913  64.2428903  36.9608553  65.3454913  56.9118903
  37.7168553  64.9134913  56.9698903  36.9758553  65.8774913  57.6028903
  37.0748553  65.3604913  57.0228903  37.9008553  63.5664913  64.9168903
  38.3318553  63.4374913  64.1698903  37.6958553  64.4144913  64.8908903
  37.9338553  63.6724913  64.8028903  44.2468553  57.1304913  58.5668903
  44.2448553  57.0134913  57.7018903  44.0658553  57.9784913  58.6588903
  44.2198553  57.2384913  58.4528903  41.9848553  67.0824913  63.1988903
  42.1108553  67.9254913  63.3858903  42.6528553  66.6834913  63.5948903
  42.1028553  67.1484913  63.2848903  40.1148553  60.5654913  73.0608903
  39.5788553  60.0594913  73.5288903  40.1348553  60.1754913  72.2808903
  40.0378553  60.4324913  73.0148903  40.5998553  59.9624913  58.2008903
  40.4718553  59.5144913  58.9388903  40.0178553  59.6204913  57.6488903
  40.4948553  59.8454913  58.2288903  40.7668553  61.7924913  64.7998903
  39.9858553  61.7334913  64.4168903  40.8388553  61.0404913  65.2368903
  40.6618553  61.6734913  64.8078903  41.1968553  61.5294913  68.2678903
  41.2218553  60.8544913  67.7168903  40.5508553  62.0254913  67.9558903
  41.1058553  61.5024913  68.1408903  51.0918553  59.2424913  66.6638903
  50.4298553  59.5704913  67.1268903  51.2788553  59.8764913  66.0948903
  51.0218553  59.3844913  66.6478903  47.7368553  55.1484913  70.0928903
  47.8858553  54.3234913  69.8498903  48.1158553  55.2034913  70.8768903
  47.8148553  55.0344913  70.1728903  49.2848553  57.2114913  60.1748903
  49.7748553  57.9284913  60.0978903  48.4948553  57.4724913  59.9118903
  49.2408553  57.3554913  60.1248903  38.9958553  62.8844913  73.8268903
  38.9588553  63.3854913  73.1128903  39.3268553  62.1324913  73.5318903
  39.0388553  62.8464913  73.6778903  50.5988553  65.0894913  72.0848903
  51.0828553  65.8074913  72.1828903  50.9928553  64.6624913  71.4338903
  50.7288553  65.1324913  72.0028903  44.8948553  67.9344913  73.2618903
  45.2488553  67.7564913  74.0388903  44.4588553  67.2054913  73.0628903
  44.8828553  67.8004913  73.3478903  45.8668553  58.6814913  65.8998903
  46.3468553  59.3804913  66.1078903  46.2398553  58.0344913  66.3508903
  45.9928553  58.6894913  65.9968903  48.0558553  61.8504913  58.1738903
  48.0478553  62.5724913  57.6838903  47.4168553  61.9854913  58.7508903
  47.9608553  61.9774913  58.1868903  53.0278553  65.7204913  62.1548903
  53.3838553  65.3704913  62.8698903  53.0198553  65.0594913  61.5848903
  53.0798553  65.5704913  62.1758903  49.0858553  65.6374913  65.3988903
  48.2888553  65.8614913  65.6728903  49.3438553  65.0434913  65.9838903
  49.0058553  65.5824913  65.5258903  42.6488553  54.1924913  57.8348903
  42.7458553  54.0854913  58.6958903  41.9408553  54.6984913  57.7698903
  42.5588553  54.2514913  57.9528903  52.3458553  63.6354913  70.2448903
  52.4008553  63.7604913  69.3828903  53.0988553  63.9554913  70.5468903
  52.4648553  63.7004913  70.1618903  53.3778553  53.9334913  73.2318903
  52.7408553  53.5334913  72.7898903  53.4038553  53.5024913  73.9898903
  53.2878553  53.8114913  73.2778903  39.7708553  62.4994913  59.0778903
  40.0948553  61.7204913  58.8558903  40.4168553  62.8674913  59.5328903
  39.9138553  62.4384913  59.1118903  48.0768553  63.4414913  69.8448903
  47.9218553  64.0514913  70.4488903  48.6108553  62.8834913  70.2508903
  48.1328553  63.4494913  69.9938903  36.7678553  54.1604913  60.0458903
  36.8968553  53.4524913  59.5538903  36.4008553  53.8424913  60.7708903
  36.7328553  54.0084913  60.0808903  46.4608553  61.8414913  60.5028903
  46.5198553  62.4914913  61.0818903  46.2718553  61.1454913  60.9938903
  46.4418553  61.8344913  60.6608903  51.6868553  66.1704913  66.3718903
  51.2078553  66.4684913  65.7058903  51.3308553  65.3944913  66.5498903
  51.5638553  66.0994913  66.2998903  40.9568553  56.3584913  57.0148903
  40.4458553  56.4114913  56.3088903  41.7408553  56.5984913  56.7188903
  40.9968553  56.4014913  56.8668903  45.6838553  63.8884913  64.9338903
  44.8368553  63.6944913  65.0148903  46.0078553  63.7234913  65.7268903
  45.6058553  63.8354913  65.0628903  39.5318553  63.5814913  67.2498903
  40.2538553  64.0694913  67.2128903  39.2618553  63.5514913  66.4208903
  39.5988553  63.6494913  67.1218903  42.7618553  58.7524913  63.9848903
  43.6078553  58.5624913  64.0828903  42.3918553  57.9754913  63.8468903
  42.8318553  58.6094913  63.9788903  37.5828553  60.0904913  60.6398903
  38.0718553  59.7984913  61.3008903  37.7118553  59.4974913  60.0128903
  37.6738553  59.9594913  60.6448903  52.6178553  63.1124913  67.4908903
  52.6108553  62.3364913  67.8888903  51.7768553  63.3464913  67.4838903
  52.4928553  63.0324913  67.5488903  42.1078553  61.5244913  56.1258903
  41.4978553  61.1194913  56.5998903  41.7218553  61.6424913  55.3528903
  41.9608553  61.4814913  56.0818903  38.9268553  64.6334913  71.5278903
  38.5058553  64.1154913  70.9668903  38.5748553  65.4194913  71.3848903
  38.8128553  64.6734913  71.4238903  53.8738553  63.1834913  64.9278903
  53.5878553  63.5844913  65.6478903  54.7338553  63.1214913  65.0548903
  53.9588553  63.2334913  65.0528903  43.5628553  59.9854913  58.8358903
  43.8348553  60.8114913  58.9028903  42.6998553  60.0604913  58.7398903
  43.4758553  60.1184913  58.8308903  51.5358553  57.1074913  73.4678903
  51.0108553  57.5664913  73.9918903  51.1748553  56.3124913  73.4618903
  51.4048553  57.0574913  73.5438903  37.0428553  55.9554913  65.3718903
  37.0868553  56.2994913  64.5708903  37.7978553  56.1924913  65.7388903
  37.1608553  56.0414913  65.3078903  50.0278553  60.6764913  73.5438903
  50.1008553  60.7804913  74.4068903  49.3938553  61.2344913  73.3228903
  49.9448553  60.7744913  73.6388903  52.2958553  60.9954913  71.9088903
  52.6148553  61.7814913  72.1118903  51.9258553  60.7254913  72.6518903
  52.2888553  61.0714913  72.0488903  51.6098553  67.4194913  57.4388903
  51.9438553  66.6134913  57.4738903  50.8548553  67.3474913  57.8688903
  51.5478553  67.2894913  57.5078903  52.0918553  59.2534913  63.0978903
  51.3468553  58.9304913  63.4158903  52.0938553  60.0794913  63.3778903
  51.9818553  59.3274913  63.1858903  54.9938553  61.5374913  74.6438903
  54.9418553  61.1964913  73.8428903  55.7308553  62.0044913  74.6218903
  55.0948553  61.5564913  74.5218903  54.5318553  65.2134913  70.8498903
  55.1598553  64.6644913  70.5938903  54.4708553  65.7784913  70.1878903
  54.6158553  65.2164913  70.7138903  48.9838553  65.2944913  56.8418903
  49.6678553  64.7804913  56.6728903  48.5668553  65.3404913  56.0768903
  49.0228553  65.2254913  56.7038903  43.6658553  66.4444913  68.1458903
  43.3678553  67.0364913  68.7128903  43.7208553  66.8864913  67.3968903
  43.6298553  66.5974913  68.1188903  41.6448553  65.3944913  71.5438903
  40.8388553  65.1044913  71.7108903  41.5558553  66.2624913  71.5498903
  41.5128553  65.4794913  71.5688903  51.0038553  55.5834913  70.5588903
  51.7478553  56.0354913  70.4958903  50.4378553  56.0534913  70.0898903
  51.0308553  55.7204913  70.4808903  46.1818553  62.8674913  67.6368903
  46.6578553  63.2414913  68.2648903  45.3588553  63.0014913  67.8958903
  46.1308553  62.9424913  67.7678903  42.8918553  58.4704913  70.3778903
  43.0528553  57.7264913  70.8048903  42.8468553  58.2214913  69.5428903
  42.9088553  58.3234913  70.3178903  52.2888553  53.5634913  68.2288903
  52.0088553  54.3884913  68.1848903  53.0048553  53.6164913  68.7248903
  52.3538553  53.6934913  68.2958903  44.6438553  54.2784913  70.2578903
  45.3488553  54.5984913  69.8558903  44.8848553  53.4714913  70.4848903
  44.7828553  54.2064913  70.2318903  47.9378553  65.1224913  73.2428903
  48.6948553  65.4084913  72.9168903  47.3908553  65.1744913  72.5648903
  47.9688553  65.1724913  73.0938903  53.7098553  59.8184913  57.0858903
  54.0878553  60.4954913  56.6858903  52.8678553  60.0424913  57.1168903
  53.6408553  59.9514913  57.0308903  45.2228553  63.2644913  56.1688903
  44.4178553  63.0874913  55.8838903  45.1898553  64.1154913  56.3608903
  45.0988553  63.3634913  56.1558903  41.1528553  59.3314913  66.3188903
  41.5928553  59.2284913  65.5728903  41.6978553  59.0184913  66.9238903
  41.2978553  59.2704913  66.2978903  49.1688553  58.4334913  71.9108903
  48.5208553  58.9034913  72.2588903  49.7338553  58.3444913  72.5698903
  49.1568553  58.4894913  72.0598903  48.8568553  59.9704913  68.2088903
  49.1588553  60.3904913  68.9118903  48.8928553  59.1304913  68.4408903
  48.9068553  59.9084913  68.3468903  51.4048553  59.4174913  60.4608903
  51.6118553  59.2164913  61.2848903  52.1608553  59.6854913  60.1188903
  51.5468553  59.4274913  60.5318903  44.6998553  54.3164913  66.3658903
  43.8738553  54.1674913  66.6028903  44.6598553  54.3514913  65.4948903
  44.5718553  54.2994913  66.2718903  52.4268553  55.5004913  61.9348903
  51.7128553  55.0294913  62.1058903  52.2648553  55.8414913  61.1488903
  52.2978553  55.4814913  61.8438903  52.8698553  63.4444913  60.3148903
  53.3458553  62.7154913  60.2668903  52.0488553  63.1584913  60.2388903
  52.8188553  63.2944913  60.2958903  46.3408553  65.3564913  71.1538903
  45.5458553  65.2924913  71.5048903  46.4118553  66.2034913  70.9588903
  46.2338553  65.4714913  71.1768903  37.2648553  54.7144913  72.4008903
  37.1248553  55.5094913  72.0698903  36.4788553  54.4714913  72.6898903
  37.1278553  54.7964913  72.3948903  40.3288553  57.4584913  59.6258903
  40.4548553  57.1294913  58.8278903  39.5168553  57.2094913  59.8248903
  40.2278553  57.3734913  59.5378903  49.0858553  64.6114913  62.6698903
  49.1618553  64.9524913  63.4688903  49.2548553  63.7644913  62.7908903
  49.1218553  64.5364913  62.8058903  46.6078553  63.8854913  62.2348903
  46.3098553  63.5704913  62.9918903  47.3028553  64.3584913  62.4698903
  46.6668553  63.9084913  62.3818903  55.0058553  60.6124913  72.0728903
  54.1508553  60.4904913  72.1988903  55.1588553  60.2174913  71.3098903
  54.9018553  60.5354913  71.9788903  49.5188553  61.2774913  70.6488903
  49.2638553  60.5584913  71.0708903  50.3398553  61.3934913  70.9188903
  49.6028553  61.1884913  70.7508903  47.4528553  62.4674913  73.8358903
  47.7758553  63.1534913  73.4038903  46.7488553  62.7904913  74.2378903
  47.3958553  62.6164913  73.8308903  47.2378553  65.9314913  67.6948903
  46.5438553  66.3334913  68.0378903  47.9148553  66.3644913  68.0338903
  47.2348553  66.0544913  67.7958903  40.3058553  59.4694913  70.0418903
  40.6808553  60.0884913  69.5548903  40.9798553  58.9954913  70.3268903
  40.4608553  59.4914913  70.0118903  38.0808553  57.9174913  69.3168903
  38.1578553  57.7484913  68.4638903  38.8268553  58.3234913  69.5138903
  38.2018553  57.9524913  69.2198903  53.6398553  60.5574913  59.7568903
  53.7428553  60.4994913  58.8928903  54.3808553  60.2254913  60.0748903
  53.7648553  60.5004913  59.6758903  40.6348553  55.3274913  71.7278903
  40.5538553  54.4834913  71.9338903  40.3208553  55.3714913  70.9148903
  40.5768553  55.2094913  71.6378903  52.7418553  60.7034913  69.1128903
  52.7398553  59.8404913  69.2368903  52.8088553  61.0274913  69.9198903
  52.7518553  60.6234913  69.2498903  37.4778553  63.1434913  69.5408903
  37.7978553  63.3624913  68.7598903  37.3778553  62.2784913  69.4858903
  37.5098553  63.0484913  69.4178903  38.9338553  59.0794913  56.1588903
  38.2618553  59.0934913  56.7148903  39.0288553  58.2314913  55.9748903
  38.8488553  58.9564913  56.2138903  48.6208553  55.5034913  72.8948903
  48.7128553  56.2154913  73.3888903  47.9838553  55.0584913  73.2918903
  48.5398553  55.5424913  73.0268903  47.6148553  55.6934913  63.7488903
  46.9148553  56.2114913  63.6928903  47.6528553  55.3134913  62.9648903
  47.5168553  55.7144913  63.6248903  42.9218553  67.7844913  57.2728903
  43.3628553  67.8644913  58.0208903  42.1168553  67.5684913  57.5308903
  42.8678553  67.7644913  57.4218903  51.2128553  56.2094913  66.5488903
  52.0678553  56.3084913  66.6938903  50.8438553  56.7624913  67.1138903
  51.2848553  56.3064913  66.6538903  42.2408553  62.4354913  70.9258903
  41.8448553  63.2094913  71.0008903  41.8348553  62.0624913  70.2498903
  42.1228553  62.4944913  70.8368903  51.5168553  61.4894913  65.0398903
  52.1828553  62.0304913  65.1998903  51.1718553  61.8004913  64.3008903
  51.5638553  61.6154913  64.9548903  40.2508553  66.8544913  57.8738903
  40.0068553  66.5474913  58.6538903  40.2178553  66.1514913  57.3578903
  40.2098553  66.7054913  57.9128903  43.0698553  65.0994913  56.6168903
  42.2518553  64.8314913  56.7568903  43.0418553  65.9514913  56.8018903
  42.9448553  65.1864913  56.6648903  42.6698553  55.4124913  68.3758903
  41.8058553  55.4964913  68.4558903  42.8898553  54.8984913  69.0448903
  42.5748553  55.3494913  68.4868903  54.6878553  54.0474913  69.7048903
  54.6358553  54.0034913  70.5748903  55.3748553  53.5444913  69.5148903
  54.7818553  53.9674913  69.8048903  46.7728553  56.1604913  66.7498903
  46.0358553  55.7064913  66.8628903  47.3438553  55.7584913  67.2728903
  46.7478553  56.0334913  66.8438903  49.5048553  67.0084913  68.5378903
  49.7108553  67.3094913  69.3298903  49.4438553  67.7304913  68.0528903
  49.5258553  67.1594913  68.5828903  44.2758553  60.4894913  71.9538903
  43.9538553  59.9134913  71.3838903  43.9168553  61.2444913  71.7078903
  44.1758553  60.5154913  71.8338903  45.0718553  53.7414913  56.5808903
  45.1498553  53.9884913  55.7478903  44.3288553  54.1184913  56.8388903
  44.9738553  53.8334913  56.4958903  54.3168553  65.6474913  67.9958903
  54.2848553  64.7854913  67.8608903  53.6238553  65.9494913  67.5618903
  54.2098553  65.5644913  67.9118903  39.8898553  55.4954913  69.0238903
  39.5468553  54.7284913  68.7898903  39.1948553  56.0194913  69.0878903
  39.7368553  55.4594913  68.9988903  48.9358553  54.3514913  66.0008903
  49.6058553  54.8954913  66.1278903  48.4328553  54.7754913  65.4278903
  48.9608553  54.4944913  65.9348903  48.2948553  60.1594913  63.4938903
  48.8458553  59.5524913  63.7938903  47.8698553  60.4224913  64.2088903
  48.3138553  60.1084913  63.6428903  38.5428553  58.8094913  62.9798903
  38.1748553  59.1114913  63.7108903  39.0768553  58.1804913  63.2638903
  38.5668553  58.7614913  63.1298903  38.2308553  67.2174913  70.4908903
  37.6568553  67.6334913  70.9998903  38.9638553  67.6824913  70.5858903
  38.2548553  67.3474913  70.5798903  50.2648553  61.9904913  60.0558903
  50.3328553  61.1404913  60.2368903  49.4418553  62.0764913  59.7778903
  50.1528553  61.8774913  60.0418903  44.1838553  62.8814913  58.9938903
  44.2838553  63.0204913  58.1388903  45.0018553  62.8214913  59.2898903
  44.3188553  62.8924913  58.9108903  53.5388553  63.3634913  73.2068903
  54.1728553  63.1934913  73.7808903  53.9558553  63.7664913  72.5548903
  53.6938553  63.3984913  73.1958903  49.4188553  67.2104913  58.7958903
  49.1678553  67.0824913  59.6218903  49.1018553  66.5154913  58.3748903
  49.3348553  67.0894913  58.8558903  54.1638553  57.9274913  73.9448903
  53.9678553  58.5714913  74.4998903  53.4418553  57.4374913  73.9368903
  54.0288553  57.9504913  74.0258903  54.0628553  58.8684913  66.9158903
  53.2298553  59.1184913  66.8438903  54.0068553  58.0284913  67.1448903
  53.9318553  58.7814913  66.9388903  43.3228553  55.8564913  72.1098903
  43.5568553  55.2804913  71.4968903  42.4808553  55.6754913  72.2508903
  43.2328553  55.7444913  72.0398903  50.9498553  63.4744913  74.5618903
  51.8208553  63.4384913  74.5258903  50.7308553  63.8944913  73.8298903
  51.0468553  63.5304913  74.4488903  46.3048553  65.4184913  58.2258903
  47.0218553  65.0714913  57.8698903  46.2708553  66.2184913  57.8778903
  46.4058553  65.4854913  58.1218903  47.7138553  54.0594913  42.4646493
  47.4688553  54.5474913  41.7846493  48.5768553  53.9864913  42.3646493
  47.8048553  54.1204913  42.3496493  47.5228553  60.9754913  47.1356493
  46.9988553  61.5714913  47.4986493  47.9198553  60.6074913  47.8196493
  47.5038553  61.0094913  47.2906493  37.3918553  65.1154913  42.5916493
  36.9508553  65.2334913  43.3346493  37.1088553  64.3404913  42.3066493
  37.2848553  65.0184913  42.6596493  37.1348553  58.9074913  39.0986493
  36.3568553  59.0694913  38.7386493  37.1738553  58.0364913  39.1206493
  37.0258553  58.8024913  39.0486493  40.2738553  64.1704913  37.7706493
  39.8818553  63.7994913  37.0846493  40.1938553  63.5724913  38.3996493
  40.2038553  64.0274913  37.7616493  50.1938553  62.0424913  43.8116493
  50.2738553  62.0464913  42.9426493  49.6098553  61.4104913  43.9606493
  50.1188553  61.9494913  43.7056493  39.9008553  65.8114913  41.6706493
  40.5088553  65.6414913  42.2736493  39.1498553  65.6714913  42.0916493
  39.8798553  65.7654913  41.8216493  44.1828553  55.1464913  41.6196493
  44.1128553  55.8234913  41.0736493  44.9238553  54.7584913  41.3706493
  44.2818553  55.1894913  41.5016493  37.3318553  67.8504913  48.8466493
  37.4608553  67.5704913  49.6626493  36.7218553  67.3094913  48.5376493
  37.2608553  67.7294913  48.9216493  43.9058553  65.3754913  53.9136493
  43.6698553  65.3724913  54.7536493  43.1578553  65.2274913  53.4896493
  43.7598553  65.3524913  53.9746493  38.7778553  62.3714913  43.0486493
  38.3158553  61.9794913  42.4216493  39.4778553  61.8584913  43.1406493
  38.8128553  62.2384913  42.9696493  43.2858553  57.9814913  48.3956493
  43.9638553  57.9994913  47.8466493  43.2408553  57.1454913  48.6406493
  43.3788553  57.8604913  48.3506493  40.7788553  60.4714913  43.0716493
  41.5958553  60.2844913  43.3146493  40.3018553  59.8574913  43.4676493
  40.8288553  60.3534913  43.1666493  44.9828553  66.4524913  45.6816493
  45.3308553  65.6534913  45.7116493  45.6478553  66.9564913  45.4266493
  45.1328553  66.4084913  45.6486493  45.0398553  65.9014913  41.8926493
  45.3708553  65.2574913  42.3786493  45.2798553  65.6904913  41.0816493
  45.1238553  65.7754913  41.8446493  47.0078553  60.0324913  53.2316493
  46.1598553  59.9334913  53.0536493  47.0368553  60.7774913  53.6856493
  46.8868553  60.1284913  53.2726493  41.3758553  55.5654913  42.3376493
  41.0798553  56.0664913  41.6876493  42.2428553  55.6434913  42.2806493
  41.4598553  55.6514913  42.2336493  51.5658553  52.9924913  52.3456493
  51.4078553  53.7614913  51.9636493  50.7938553  52.7724913  52.6896493
  51.4278553  53.0734913  52.3406493  44.3548553  54.7074913  44.5606493
  44.4278553  55.5674913  44.6896493  44.3168553  54.6324913  43.6926493
  44.3598553  54.8234913  44.4516493  49.0278553  57.6334913  36.8596493
  48.5778553  58.3144913  37.1666493  49.1418553  57.1294913  37.5626493
  48.9788553  57.6594913  37.0086493  37.2338553  60.1324913  46.0616493
  36.9778553  60.9634913  45.9866493  36.5698553  59.7494913  46.4786493
  37.0978553  60.1984913  46.1126493  42.9838553  67.6864913  41.4416493
  42.4048553  67.4114913  42.0336493  43.6078553  67.0774913  41.4666493
  42.9908553  67.5564913  41.5326493  40.2628553  54.9494913  46.5526493
  39.7418553  54.3214913  46.2446493  40.8538553  54.5124913  47.0236493
  40.2738553  54.7914913  46.5766493  43.5688553  57.0824913  55.8506493
  43.6858553  56.6284913  55.1146493  43.8568553  57.8804913  55.6476493
  43.6288553  57.1334913  55.7116493  54.4218553  57.6064913  43.1546493
  54.0758553  58.2844913  43.5806493  53.7858553  57.0084913  43.1706493
  54.2768553  57.6184913  43.2196493  39.3018553  56.6794913  54.8346493
  38.5238553  56.2894913  54.7626493  39.7928553  56.2674913  54.2436493
  39.2588553  56.5604913  54.7366493  39.5068553  66.9994913  45.3926493
  39.9298553  66.6434913  44.7186493  39.8308553  66.5774913  46.0846493
  39.6168553  66.8844913  45.3956493  45.9508553  54.3224913  54.0026493
  46.1288553  53.5134913  53.7276493  45.8078553  54.7634913  53.2636493
  45.9558553  54.2684913  53.8526493  46.5448553  59.2484913  42.7756493
  46.8318553  59.0164913  41.9856493  47.2768553  59.3274913  43.2446493
  46.6948553  59.2254913  42.7286493  47.2668553  59.5874913  37.8966493
  47.5478553  60.3754913  38.1456493  46.4908553  59.7524913  37.5336493
  47.1938553  59.7284913  37.8796493  54.0968553  55.9294913  48.5236493
  54.8538553  56.0014913  48.0956493  54.1598553  55.1564913  48.9226493
  54.2178553  55.8264913  48.5186493  36.6498553  57.2274913  52.4206493
  36.6458553  57.8144913  53.0666493  37.2438553  57.5394913  51.8636493
  36.7368553  57.3604913  52.4336493  48.9878553  67.5614913  52.9626493
  48.9538553  67.9434913  53.7466493  49.8418553  67.5194913  52.7916493
  49.1088553  67.6114913  53.0536493  49.6328553  55.6544913  38.7666493
  50.1728553  54.9724913  38.8426493  49.6948553  56.0524913  39.5406493
  49.7218553  55.6124913  38.8926493  37.5868553  56.8224913  41.3356493
  37.4728553  55.9584913  41.3666493  37.1118553  57.1164913  42.0056493
  37.4998553  56.7384913  41.4386493  46.8908553  58.0304913  40.0806493
  46.3828553  57.3684913  39.8266493  46.9428553  58.5344913  39.3706493
  46.8238553  58.0074913  39.9386493  46.8908553  54.9714913  39.9716493
  46.4358553  54.5694913  39.3456493  47.6638553  55.1264913  39.5966493
  46.9378553  54.9354913  39.8236493  45.4888553  57.3384913  44.4936493
  45.5628553  57.9064913  43.8356493  45.6098553  57.8304913  45.2036493
  45.5168553  57.4954913  44.5016493  50.7138553  67.1734913  42.9056493
  51.4148553  66.6914913  43.0946493  50.0538553  66.6044913  42.9506493
  50.7198553  67.0184913  42.9396493  40.0968553  53.1614913  42.8416493
  40.6328553  53.8494913  42.8316493  40.0998553  52.8874913  42.0136493
  40.1758553  53.2224913  42.7176493  43.0528553  63.5944913  46.8666493
  43.2248553  63.3844913  47.6956493  42.3978553  63.0604913  46.6506493
  42.9818553  63.4844913  46.9576493  49.2808553  57.5084913  50.3816493
  49.1858553  57.8274913  51.1876493  48.6878553  56.8694913  50.3436493
  49.1788553  57.4604913  50.4956493  43.8028553  63.5324913  49.4566493
  43.8558553  64.3794913  49.6586493  43.5178553  63.1624913  50.1936493
  43.7688553  63.6024913  49.5946493  49.9798553  64.2274913  48.5866493
  49.4658553  63.8154913  49.1576493  49.8538553  65.0714913  48.7676493
  49.8858553  64.2914913  48.6976493  50.5368553  53.4524913  43.2176493
  50.5858553  53.1344913  44.0286493  50.8598553  52.8084913  42.7246493
  50.5918553  53.3104913  43.2646493  53.0008553  57.6884913  51.5256493
  53.7728553  57.4634913  51.8626493  52.5258553  57.9054913  52.2256493
  53.0448553  57.6874913  51.6786493  40.5448553  56.9714913  44.4956493
  40.8168553  56.5414913  43.7876493  40.3688553  56.3354913  45.0666493
  40.5588553  56.8144913  44.4756493  53.2328553  64.6664913  38.7136493
  53.3518553  64.3794913  39.5286493  54.0398553  64.6874913  38.3836493
  53.3688553  64.6274913  38.7856493  40.3688553  64.3984913  44.0446493
  41.2198553  64.3184913  43.8716493  40.0118553  63.7164913  43.6326493
  40.4418553  64.2854913  43.9576493  38.6858553  58.0734913  47.5776493
  39.5288553  58.2934913  47.5346493  38.2968553  58.6464913  47.0466493
  38.7528553  58.1904913  47.4926493  51.1278553  61.2034913  38.2986493
  50.9078553  61.9344913  37.8766493  50.6798553  61.2544913  39.0456493
  51.0288553  61.3184913  38.3466493  42.7368553  64.4054913  42.2796493
  43.4498553  64.9004913  42.3696493  42.9588553  63.8384913  41.6536493
  42.8748553  64.3944913  42.2006493  55.3148553  56.0644913  37.7516493
  54.6528553  55.4964913  37.7746493  55.1218553  56.5764913  37.0716493
  55.1888553  56.0564913  37.6546493  36.8928553  66.0484913  45.5996493
  36.2258553  66.5364913  45.8756493  37.5728553  66.5934913  45.6286493
  36.8948553  66.2004913  45.6446493  44.5398553  59.7584913  55.6956493
  44.0558553  60.3354913  56.1376493  44.5118553  60.0534913  54.8746493
  44.4638553  59.8874913  55.6396493  55.6378553  60.4424913  50.3076493
  55.8528553  59.6424913  50.0316493  54.7878553  60.5024913  50.1186493
  55.5438553  60.3334913  50.2386493  36.9588553  62.7324913  40.7026493
  36.7738553  61.8934913  40.8546493  37.6178553  62.6964913  40.1326493
  37.0288553  62.6034913  40.6406493  53.3168553  55.6224913  40.0306493
  54.0628553  55.2154913  40.2296493  53.5798553  56.3374913  39.6056493
  53.4658553  55.6684913  39.9976493  37.1308553  66.8964913  40.2776493
  37.6828553  67.4654913  40.6416493  36.8988553  66.3814913  40.9426493
  37.1778553  66.9044913  40.4296493  41.3348553  65.8964913  47.3666493
  41.8018553  66.1854913  48.0446493  41.9068553  65.4184913  46.9126493
  41.4888553  65.8684913  47.3996493  49.7708553  57.9104913  45.1036493
  50.1148553  58.0624913  45.8906493  49.3178553  57.1724913  45.2166493
  49.7548553  57.8234913  45.2366493  36.9608553  65.3454913  37.9056493
  37.7168553  64.9134913  37.9636493  36.9758553  65.8774913  38.5966493
  37.0748553  65.3604913  38.0166493  37.9008553  63.5664913  45.9106493
  38.3318553  63.4374913  45.1636493  37.6958553  64.4144913  45.8846493
  37.9338553  63.6724913  45.7966493  44.2468553  57.1304913  39.5606493
  44.2448553  57.0134913  38.6956493  44.0658553  57.9784913  39.6526493
  44.2198553  57.2384913  39.4466493  41.9848553  67.0824913  44.1926493
  42.1108553  67.9254913  44.3796493  42.6528553  66.6834913  44.5886493
  42.1028553  67.1484913  44.2786493  40.1148553  60.5654913  54.0546493
  39.5788553  60.0594913  54.5226493  40.1348553  60.1754913  53.2746493
  40.0378553  60.4324913  54.0086493  40.5998553  59.9624913  39.1946493
  40.4718553  59.5144913  39.9326493  40.0178553  59.6204913  38.6426493
  40.4948553  59.8454913  39.2226493  40.7668553  61.7924913  45.7936493
  39.9858553  61.7334913  45.4106493  40.8388553  61.0404913  46.2306493
  40.6618553  61.6734913  45.8016493  41.1968553  61.5294913  49.2616493
  41.2218553  60.8544913  48.7106493  40.5508553  62.0254913  48.9496493
  41.1058553  61.5024913  49.1346493  51.0918553  59.2424913  47.6576493
  50.4298553  59.5704913  48.1206493  51.2788553  59.8764913  47.0886493
  51.0218553  59.3844913  47.6416493  47.7368553  55.1484913  51.0866493
  47.8858553  54.3234913  50.8436493  48.1158553  55.2034913  51.8706493
  47.8148553  55.0344913  51.1666493  49.2848553  57.2114913  41.1686493
  49.7748553  57.9284913  41.0916493  48.4948553  57.4724913  40.9056493
  49.2408553  57.3554913  41.1186493  38.9958553  62.8844913  54.8206493
  38.9588553  63.3854913  54.1066493  39.3268553  62.1324913  54.5256493
  39.0388553  62.8464913  54.6716493  50.5988553  65.0894913  53.0786493
  51.0828553  65.8074913  53.1766493  50.9928553  64.6624913  52.4276493
  50.7288553  65.1324913  52.9966493  44.8948553  67.9344913  54.2556493
  45.2488553  67.7564913  55.0326493  44.4588553  67.2054913  54.0566493
  44.8828553  67.8004913  54.3416493  45.8668553  58.6814913  46.8936493
  46.3468553  59.3804913  47.1016493  46.2398553  58.0344913  47.3446493
  45.9928553  58.6894913  46.9906493  48.0558553  61.8504913  39.1676493
  48.0478553  62.5724913  38.6776493  47.4168553  61.9854913  39.7446493
  47.9608553  61.9774913  39.1806493  53.0278553  65.7204913  43.1486493
  53.3838553  65.3704913  43.8636493  53.0198553  65.0594913  42.5786493
  53.0798553  65.5704913  43.1696493  49.0858553  65.6374913  46.3926493
  48.2888553  65.8614913  46.6666493  49.3438553  65.0434913  46.9776493
  49.0058553  65.5824913  46.5196493  42.6488553  54.1924913  38.8286493
  42.7458553  54.0854913  39.6896493  41.9408553  54.6984913  38.7636493
  42.5588553  54.2514913  38.9466493  52.3458553  63.6354913  51.2386493
  52.4008553  63.7604913  50.3766493  53.0988553  63.9554913  51.5406493
  52.4648553  63.7004913  51.1556493  53.3778553  53.9334913  54.2256493
  52.7408553  53.5334913  53.7836493  53.4038553  53.5024913  54.9836493
  53.2878553  53.8114913  54.2716493  39.7708553  62.4994913  40.0716493
  40.0948553  61.7204913  39.8496493  40.4168553  62.8674913  40.5266493
  39.9138553  62.4384913  40.1056493  48.0768553  63.4414913  50.8386493
  47.9218553  64.0514913  51.4426493  48.6108553  62.8834913  51.2446493
  48.1328553  63.4494913  50.9876493  36.7678553  54.1604913  41.0396493
  36.8968553  53.4524913  40.5476493  36.4008553  53.8424913  41.7646493
  36.7328553  54.0084913  41.0746493  46.4608553  61.8414913  41.4966493
  46.5198553  62.4914913  42.0756493  46.2718553  61.1454913  41.9876493
  46.4418553  61.8344913  41.6546493  51.6868553  66.1704913  47.3656493
  51.2078553  66.4684913  46.6996493  51.3308553  65.3944913  47.5436493
  51.5638553  66.0994913  47.2936493  40.9568553  56.3584913  38.0086493
  40.4458553  56.4114913  37.3026493  41.7408553  56.5984913  37.7126493
  40.9968553  56.4014913  37.8606493  45.6838553  63.8884913  45.9276493
  44.8368553  63.6944913  46.0086493  46.0078553  63.7234913  46.7206493
  45.6058553  63.8354913  46.0566493  39.5318553  63.5814913  48.2436493
  40.2538553  64.0694913  48.2066493  39.2618553  63.5514913  47.4146493
  39.5988553  63.6494913  48.1156493  42.7618553  58.7524913  44.9786493
  43.6078553  58.5624913  45.0766493  42.3918553  57.9754913  44.8406493
  42.8318553  58.6094913  44.9726493  37.5828553  60.0904913  41.6336493
  38.0718553  59.7984913  42.2946493  37.7118553  59.4974913  41.0066493
  37.6738553  59.9594913  41.6386493  52.6178553  63.1124913  48.4846493
  52.6108553  62.3364913  48.8826493  51.7768553  63.3464913  48.4776493
  52.4928553  63.0324913  48.5426493  42.1078553  61.5244913  37.1196493
  41.4978553  61.1194913  37.5936493  41.7218553  61.6424913  36.3466493
  41.9608553  61.4814913  37.0756493  38.9268553  64.6334913  52.5216493
  38.5058553  64.1154913  51.9606493  38.5748553  65.4194913  52.3786493
  38.8128553  64.6734913  52.4176493  53.8738553  63.1834913  45.9216493
  53.5878553  63.5844913  46.6416493  54.7338553  63.1214913  46.0486493
  53.9588553  63.2334913  46.0466493  43.5628553  59.9854913  39.8296493
  43.8348553  60.8114913  39.8966493  42.6998553  60.0604913  39.7336493
  43.4758553  60.1184913  39.8246493  51.5358553  57.1074913  54.4616493
  51.0108553  57.5664913  54.9856493  51.1748553  56.3124913  54.4556493
  51.4048553  57.0574913  54.5376493  37.0428553  55.9554913  46.3656493
  37.0868553  56.2994913  45.5646493  37.7978553  56.1924913  46.7326493
  37.1608553  56.0414913  46.3016493  50.0278553  60.6764913  54.5376493
  50.1008553  60.7804913  55.4006493  49.3938553  61.2344913  54.3166493
  49.9448553  60.7744913  54.6326493  52.2958553  60.9954913  52.9026493
  52.6148553  61.7814913  53.1056493  51.9258553  60.7254913  53.6456493
  52.2888553  61.0714913  53.0426493  51.6098553  67.4194913  38.4326493
  51.9438553  66.6134913  38.4676493  50.8548553  67.3474913  38.8626493
  51.5478553  67.2894913  38.5016493  52.0918553  59.2534913  44.0916493
  51.3468553  58.9304913  44.4096493  52.0938553  60.0794913  44.3716493
  51.9818553  59.3274913  44.1796493  54.9938553  61.5374913  55.6376493
  54.9418553  61.1964913  54.8366493  55.7308553  62.0044913  55.6156493
  55.0948553  61.5564913  55.5156493  54.5318553  65.2134913  51.8436493
  55.1598553  64.6644913  51.5876493  54.4708553  65.7784913  51.1816493
  54.6158553  65.2164913  51.7076493  48.9838553  65.2944913  37.8356493
  49.6678553  64.7804913  37.6666493  48.5668553  65.3404913  37.0706493
  49.0228553  65.2254913  37.6976493  43.6658553  66.4444913  49.1396493
  43.3678553  67.0364913  49.7066493  43.7208553  66.8864913  48.3906493
  43.6298553  66.5974913  49.1126493  41.6448553  65.3944913  52.5376493
  40.8388553  65.1044913  52.7046493  41.5558553  66.2624913  52.5436493
  41.5128553  65.4794913  52.5626493  51.0038553  55.5834913  51.5526493
  51.7478553  56.0354913  51.4896493  50.4378553  56.0534913  51.0836493
  51.0308553  55.7204913  51.4746493  46.1818553  62.8674913  48.6306493
  46.6578553  63.2414913  49.2586493  45.3588553  63.0014913  48.8896493
  46.1308553  62.9424913  48.7616493  42.8918553  58.4704913  51.3716493
  43.0528553  57.7264913  51.7986493  42.8468553  58.2214913  50.5366493
  42.9088553  58.3234913  51.3116493  52.2888553  53.5634913  49.2226493
  52.0088553  54.3884913  49.1786493  53.0048553  53.6164913  49.7186493
  52.3538553  53.6934913  49.2896493  44.6438553  54.2784913  51.2516493
  45.3488553  54.5984913  50.8496493  44.8848553  53.4714913  51.4786493
  44.7828553  54.2064913  51.2256493  47.9378553  65.1224913  54.2366493
  48.6948553  65.4084913  53.9106493  47.3908553  65.1744913  53.5586493
  47.9688553  65.1724913  54.0876493  53.7098553  59.8184913  38.0796493
  54.0878553  60.4954913  37.6796493  52.8678553  60.0424913  38.1106493
  53.6408553  59.9514913  38.0246493  45.2228553  63.2644913  37.1626493
  44.4178553  63.0874913  36.8776493  45.1898553  64.1154913  37.3546493
  45.0988553  63.3634913  37.1496493  41.1528553  59.3314913  47.3126493
  41.5928553  59.2284913  46.5666493  41.6978553  59.0184913  47.9176493
  41.2978553  59.2704913  47.2916493  49.1688553  58.4334913  52.9046493
  48.5208553  58.9034913  53.2526493  49.7338553  58.3444913  53.5636493
  49.1568553  58.4894913  53.0536493  48.8568553  59.9704913  49.2026493
  49.1588553  60.3904913  49.9056493  48.8928553  59.1304913  49.4346493
  48.9068553  59.9084913  49.3406493  51.4048553  59.4174913  41.4546493
  51.6118553  59.2164913  42.2786493  52.1608553  59.6854913  41.1126493
  51.5468553  59.4274913  41.5256493  44.6998553  54.3164913  47.3596493
  43.8738553  54.1674913  47.5966493  44.6598553  54.3514913  46.4886493
  44.5718553  54.2994913  47.2656493  52.4268553  55.5004913  42.9286493
  51.7128553  55.0294913  43.0996493  52.2648553  55.8414913  42.1426493
  52.2978553  55.4814913  42.8376493  52.8698553  63.4444913  41.3086493
  53.3458553  62.7154913  41.2606493  52.0488553  63.1584913  41.2326493
  52.8188553  63.2944913  41.2896493  46.3408553  65.3564913  52.1476493
  45.5458553  65.2924913  52.4986493  46.4118553  66.2034913  51.9526493
  46.2338553  65.4714913  52.1706493  37.2648553  54.7144913  53.3946493
  37.1248553  55.5094913  53.0636493  36.4788553  54.4714913  53.6836493
  37.1278553  54.7964913  53.3886493  40.3288553  57.4584913  40.6196493
  40.4548553  57.1294913  39.8216493  39.5168553  57.2094913  40.8186493
  40.2278553  57.3734913  40.5316493  49.0858553  64.6114913  43.6636493
  49.1618553  64.9524913  44.4626493  49.2548553  63.7644913  43.7846493
  49.1218553  64.5364913  43.7996493  46.6078553  63.8854913  43.2286493
  46.3098553  63.5704913  43.9856493  47.3028553  64.3584913  43.4636493
  46.6668553  63.9084913  43.3756493  55.0058553  60.6124913  53.0666493
  54.1508553  60.4904913  53.1926493  55.1588553  60.2174913  52.3036493
  54.9018553  60.5354913  52.9726493  49.5188553  61.2774913  51.6426493
  49.2638553  60.5584913  52.0646493  50.3398553  61.3934913  51.9126493
  49.6028553  61.1884913  51.7446493  47.4528553  62.4674913  54.8296493
  47.7758553  63.1534913  54.3976493  46.7488553  62.7904913  55.2316493
  47.3958553  62.6164913  54.8246493  47.2378553  65.9314913  48.6886493
  46.5438553  66.3334913  49.0316493  47.9148553  66.3644913  49.0276493
  47.2348553  66.0544913  48.7896493  40.3058553  59.4694913  51.0356493
  40.6808553  60.0884913  50.5486493  40.9798553  58.9954913  51.3206493
  40.4608553  59.4914913  51.0056493  38.0808553  57.9174913  50.3106493
  38.1578553  57.7484913  49.4576493  38.8268553  58.3234913  50.5076493
  38.2018553  57.9524913  50.2136493  53.6398553  60.5574913  40.7506493
  53.7428553  60.4994913  39.8866493  54.3808553  60.2254913  41.0686493
  53.7648553  60.5004913  40.6696493  40.6348553  55.3274913  52.7216493
  40.5538553  54.4834913  52.9276493  40.3208553  55.3714913  51.9086493
  40.5768553  55.2094913  52.6316493  52.7418553  60.7034913  50.1066493
  52.7398553  59.8404913  50.2306493  52.8088553  61.0274913  50.9136493
  52.7518553  60.6234913  50.2436493  37.4778553  63.1434913  50.5346493
  37.7978553  63.3624913  49.7536493  37.3778553  62.2784913  50.4796493
  37.5098553  63.0484913  50.4116493  38.9338553  59.0794913  37.1526493
  38.2618553  59.0934913  37.7086493  39.0288553  58.2314913  36.9686493
  38.8488553  58.9564913  37.2076493  48.6208553  55.5034913  53.8886493
  48.7128553  56.2154913  54.3826493  47.9838553  55.0584913  54.2856493
  48.5398553  55.5424913  54.0206493  47.6148553  55.6934913  44.7426493
  46.9148553  56.2114913  44.6866493  47.6528553  55.3134913  43.9586493
  47.5168553  55.7144913  44.6186493  42.9218553  67.7844913  38.2666493
  43.3628553  67.8644913  39.0146493  42.1168553  67.5684913  38.5246493
  42.8678553  67.7644913  38.4156493  51.2128553  56.2094913  47.5426493
  52.0678553  56.3084913  47.6876493  50.8438553  56.7624913  48.1076493
  51.2848553  56.3064913  47.6476493  42.2408553  62.4354913  51.9196493
  41.8448553  63.2094913  51.9946493  41.8348553  62.0624913  51.2436493
  42.1228553  62.4944913  51.8306493  51.5168553  61.4894913  46.0336493
  52.1828553  62.0304913  46.1936493  51.1718553  61.8004913  45.2946493
  51.5638553  61.6154913  45.9486493  40.2508553  66.8544913  38.8676493
  40.0068553  66.5474913  39.6476493  40.2178553  66.1514913  38.3516493
  40.2098553  66.7054913  38.9066493  43.0698553  65.0994913  37.6106493
  42.2518553  64.8314913  37.7506493  43.0418553  65.9514913  37.7956493
  42.9448553  65.1864913  37.6586493  42.6698553  55.4124913  49.3696493
  41.8058553  55.4964913  49.4496493  42.8898553  54.8984913  50.0386493
  42.5748553  55.3494913  49.4806493  54.6878553  54.0474913  50.6986493
  54.6358553  54.0034913  51.5686493  55.3748553  53.5444913  50.5086493
  54.7818553  53.9674913  50.7986493  46.7728553  56.1604913  47.7436493
  46.0358553  55.7064913  47.8566493  47.3438553  55.7584913  48.2666493
  46.7478553  56.0334913  47.8376493  49.5048553  67.0084913  49.5316493
  49.7108553  67.3094913  50.3236493  49.4438553  67.7304913  49.0466493
  49.5258553  67.1594913  49.5766493  44.2758553  60.4894913  52.9476493
  43.9538553  59.9134913  52.3776493  43.9168553  61.2444913  52.7016493
  44.1758553  60.5154913  52.8276493  45.0718553  53.7414913  37.5746493
  45.1498553  53.9884913  36.7416493  44.3288553  54.1184913  37.8326493
  44.9738553  53.8334913  37.4896493  54.3168553  65.6474913  48.9896493
  54.2848553  64.7854913  48.8546493  53.6238553  65.9494913  48.5556493
  54.2098553  65.5644913  48.9056493  39.8898553  55.4954913  50.0176493
  39.5468553  54.7284913  49.7836493  39.1948553  56.0194913  50.0816493
  39.7368553  55.4594913  49.9926493  48.9358553  54.3514913  46.9946493
  49.6058553  54.8954913  47.1216493  48.4328553  54.7754913  46.4216493
  48.9608553  54.4944913  46.9286493  48.2948553  60.1594913  44.4876493
  48.8458553  59.5524913  44.7876493  47.8698553  60.4224913  45.2026493
  48.3138553  60.1084913  44.6366493  38.5428553  58.8094913  43.9736493
  38.1748553  59.1114913  44.7046493  39.0768553  58.1804913  44.2576493
  38.5668553  58.7614913  44.1236493  38.2308553  67.2174913  51.4846493
  37.6568553  67.6334913  51.9936493  38.9638553  67.6824913  51.5796493
  38.2548553  67.3474913  51.5736493  50.2648553  61.9904913  41.0496493
  50.3328553  61.1404913  41.2306493  49.4418553  62.0764913  40.7716493
  50.1528553  61.8774913  41.0356493  44.1838553  62.8814913  39.9876493
  44.2838553  63.0204913  39.1326493  45.0018553  62.8214913  40.2836493
  44.3188553  62.8924913  39.9046493  53.5388553  63.3634913  54.2006493
  54.1728553  63.1934913  54.7746493  53.9558553  63.7664913  53.5486493
  53.6938553  63.3984913  54.1896493  49.4188553  67.2104913  39.7896493
  49.1678553  67.0824913  40.6156493  49.1018553  66.5154913  39.3686493
  49.3348553  67.0894913  39.8496493  54.1638553  57.9274913  54.9386493
  53.9678553  58.5714913  55.4936493  53.4418553  57.4374913  54.9306493
  54.0288553  57.9504913  55.0196493  54.0628553  58.8684913  47.9096493
  53.2298553  59.1184913  47.8376493  54.0068553  58.0284913  48.1386493
  53.9318553  58.7814913  47.9326493  43.3228553  55.8564913  53.1036493
  43.5568553  55.2804913  52.4906493  42.4808553  55.6754913  53.2446493
  43.2328553  55.7444913  53.0336493  50.9498553  63.4744913  55.5556493
  51.8208553  63.4384913  55.5196493  50.7308553  63.8944913  54.8236493
  51.0468553  63.5304913  55.4426493  46.3048553  65.4184913  39.2196493
  47.0218553  65.0714913  38.8636493  46.2708553  66.2184913  38.8716493
  46.4058553  65.4854913  39.1156493  47.7138553  54.0594913  23.4584083
  47.4688553  54.5474913  22.7784083  48.5768553  53.9864913  23.3584083
  47.8048553  54.1204913  23.3434083  47.5228553  60.9754913  28.1294083
  46.9988553  61.5714913  28.4924083  47.9198553  60.6074913  28.8134083
  47.5038553  61.0094913  28.2844083  37.3918553  65.1154913  23.5854083
  36.9508553  65.2334913  24.3284083  37.1088553  64.3404913  23.3004083
  37.2848553  65.0184913  23.6534083  37.1348553  58.9074913  20.0924083
  36.3568553  59.0694913  19.7324083  37.1738553  58.0364913  20.1144083
  37.0258553  58.8024913  20.0424083  40.2738553  64.1704913  18.7644083
  39.8818553  63.7994913  18.0784083  40.1938553  63.5724913  19.3934083
  40.2038553  64.0274913  18.7554083  50.1938553  62.0424913  24.8054083
  50.2738553  62.0464913  23.9364083  49.6098553  61.4104913  24.9544083
  50.1188553  61.9494913  24.6994083  39.9008553  65.8114913  22.6644083
  40.5088553  65.6414913  23.2674083  39.1498553  65.6714913  23.0854083
  39.8798553  65.7654913  22.8154083  44.1828553  55.1464913  22.6134083
  44.1128553  55.8234913  22.0674083  44.9238553  54.7584913  22.3644083
  44.2818553  55.1894913  22.4954083  37.3318553  67.8504913  29.8404083
  37.4608553  67.5704913  30.6564083  36.7218553  67.3094913  29.5314083
  37.2608553  67.7294913  29.9154083  43.9058553  65.3754913  34.9074083
  43.6698553  65.3724913  35.7474083  43.1578553  65.2274913  34.4834083
  43.7598553  65.3524913  34.9684083  38.7778553  62.3714913  24.0424083
  38.3158553  61.9794913  23.4154083  39.4778553  61.8584913  24.1344083
  38.8128553  62.2384913  23.9634083  43.2858553  57.9814913  29.3894083
  43.9638553  57.9994913  28.8404083  43.2408553  57.1454913  29.6344083
  43.3788553  57.8604913  29.3444083  40.7788553  60.4714913  24.0654083
  41.5958553  60.2844913  24.3084083  40.3018553  59.8574913  24.4614083
  40.8288553  60.3534913  24.1604083  44.9828553  66.4524913  26.6754083
  45.3308553  65.6534913  26.7054083  45.6478553  66.9564913  26.4204083
  45.1328553  66.4084913  26.6424083  45.0398553  65.9014913  22.8864083
  45.3708553  65.2574913  23.3724083  45.2798553  65.6904913  22.0754083
  45.1238553  65.7754913  22.8384083  47.0078553  60.0324913  34.2254083
  46.1598553  59.9334913  34.0474083  47.0368553  60.7774913  34.6794083
  46.8868553  60.1284913  34.2664083  41.3758553  55.5654913  23.3314083
  41.0798553  56.0664913  22.6814083  42.2428553  55.6434913  23.2744083
  41.4598553  55.6514913  23.2274083  51.5658553  52.9924913  33.3394083
  51.4078553  53.7614913  32.9574083  50.7938553  52.7724913  33.6834083
  51.4278553  53.0734913  33.3344083  44.3548553  54.7074913  25.5544083
  44.4278553  55.5674913  25.6834083  44.3168553  54.6324913  24.6864083
  44.3598553  54.8234913  25.4454083  49.0278553  57.6334913  17.8534083
  48.5778553  58.3144913  18.1604083  49.1418553  57.1294913  18.5564083
  48.9788553  57.6594913  18.0024083  37.2338553  60.1324913  27.0554083
  36.9778553  60.9634913  26.9804083  36.5698553  59.7494913  27.4724083
  37.0978553  60.1984913  27.1064083  42.9838553  67.6864913  22.4354083
  42.4048553  67.4114913  23.0274083  43.6078553  67.0774913  22.4604083
  42.9908553  67.5564913  22.5264083  40.2628553  54.9494913  27.5464083
  39.7418553  54.3214913  27.2384083  40.8538553  54.5124913  28.0174083
  40.2738553  54.7914913  27.5704083  43.5688553  57.0824913  36.8444083
  43.6858553  56.6284913  36.1084083  43.8568553  57.8804913  36.6414083
  43.6288553  57.1334913  36.7054083  54.4218553  57.6064913  24.1484083
  54.0758553  58.2844913  24.5744083  53.7858553  57.0084913  24.1644083
  54.2768553  57.6184913  24.2134083  39.3018553  56.6794913  35.8284083
  38.5238553  56.2894913  35.7564083  39.7928553  56.2674913  35.2374083
  39.2588553  56.5604913  35.7304083  39.5068553  66.9994913  26.3864083
  39.9298553  66.6434913  25.7124083  39.8308553  66.5774913  27.0784083
  39.6168553  66.8844913  26.3894083  45.9508553  54.3224913  34.9964083
  46.1288553  53.5134913  34.7214083  45.8078553  54.7634913  34.2574083
  45.9558553  54.2684913  34.8464083  46.5448553  59.2484913  23.7694083
  46.8318553  59.0164913  22.9794083  47.2768553  59.3274913  24.2384083
  46.6948553  59.2254913  23.7224083  47.2668553  59.5874913  18.8904083
  47.5478553  60.3754913  19.1394083  46.4908553  59.7524913  18.5274083
  47.1938553  59.7284913  18.8734083  54.0968553  55.9294913  29.5174083
  54.8538553  56.0014913  29.0894083  54.1598553  55.1564913  29.9164083
  54.2178553  55.8264913  29.5124083  36.6498553  57.2274913  33.4144083
  36.6458553  57.8144913  34.0604083  37.2438553  57.5394913  32.8574083
  36.7368553  57.3604913  33.4274083  48.9878553  67.5614913  33.9564083
  48.9538553  67.9434913  34.7404083  49.8418553  67.5194913  33.7854083
  49.1088553  67.6114913  34.0474083  49.6328553  55.6544913  19.7604083
  50.1728553  54.9724913  19.8364083  49.6948553  56.0524913  20.5344083
  49.7218553  55.6124913  19.8864083  37.5868553  56.8224913  22.3294083
  37.4728553  55.9584913  22.3604083  37.1118553  57.1164913  22.9994083
  37.4998553  56.7384913  22.4324083  46.8908553  58.0304913  21.0744083
  46.3828553  57.3684913  20.8204083  46.9428553  58.5344913  20.3644083
  46.8238553  58.0074913  20.9324083  46.8908553  54.9714913  20.9654083
  46.4358553  54.5694913  20.3394083  47.6638553  55.1264913  20.5904083
  46.9378553  54.9354913  20.8174083  45.4888553  57.3384913  25.4874083
  45.5628553  57.9064913  24.8294083  45.6098553  57.8304913  26.1974083
  45.5168553  57.4954913  25.4954083  50.7138553  67.1734913  23.8994083
  51.4148553  66.6914913  24.0884083  50.0538553  66.6044913  23.9444083
  50.7198553  67.0184913  23.9334083  40.0968553  53.1614913  23.8354083
  40.6328553  53.8494913  23.8254083  40.0998553  52.8874913  23.0074083
  40.1758553  53.2224913  23.7114083  43.0528553  63.5944913  27.8604083
  43.2248553  63.3844913  28.6894083  42.3978553  63.0604913  27.6444083
  42.9818553  63.4844913  27.9514083  49.2808553  57.5084913  31.3754083
  49.1858553  57.8274913  32.1814083  48.6878553  56.8694913  31.3374083
  49.1788553  57.4604913  31.4894083  43.8028553  63.5324913  30.4504083
  43.8558553  64.3794913  30.6524083  43.5178553  63.1624913  31.1874083
  43.7688553  63.6024913  30.5884083  49.9798553  64.2274913  29.5804083
  49.4658553  63.8154913  30.1514083  49.8538553  65.0714913  29.7614083
  49.8858553  64.2914913  29.6914083  50.5368553  53.4524913  24.2114083
  50.5858553  53.1344913  25.0224083  50.8598553  52.8084913  23.7184083
  50.5918553  53.3104913  24.2584083  53.0008553  57.6884913  32.5194083
  53.7728553  57.4634913  32.8564083  52.5258553  57.9054913  33.2194083
  53.0448553  57.6874913  32.6724083  40.5448553  56.9714913  25.4894083
  40.8168553  56.5414913  24.7814083  40.3688553  56.3354913  26.0604083
  40.5588553  56.8144913  25.4694083  53.2328553  64.6664913  19.7074083
  53.3518553  64.3794913  20.5224083  54.0398553  64.6874913  19.3774083
  53.3688553  64.6274913  19.7794083  40.3688553  64.3984913  25.0384083
  41.2198553  64.3184913  24.8654083  40.0118553  63.7164913  24.6264083
  40.4418553  64.2854913  24.9514083  38.6858553  58.0734913  28.5714083
  39.5288553  58.2934913  28.5284083  38.2968553  58.6464913  28.0404083
  38.7528553  58.1904913  28.4864083  51.1278553  61.2034913  19.2924083
  50.9078553  61.9344913  18.8704083  50.6798553  61.2544913  20.0394083
  51.0288553  61.3184913  19.3404083  42.7368553  64.4054913  23.2734083
  43.4498553  64.9004913  23.3634083  42.9588553  63.8384913  22.6474083
  42.8748553  64.3944913  23.1944083  55.3148553  56.0644913  18.7454083
  54.6528553  55.4964913  18.7684083  55.1218553  56.5764913  18.0654083
  55.1888553  56.0564913  18.6484083  36.8928553  66.0484913  26.5934083
  36.2258553  66.5364913  26.8694083  37.5728553  66.5934913  26.6224083
  36.8948553  66.2004913  26.6384083  44.5398553  59.7584913  36.6894083
  44.0558553  60.3354913  37.1314083  44.5118553  60.0534913  35.8684083
  44.4638553  59.8874913  36.6334083  55.6378553  60.4424913  31.3014083
  55.8528553  59.6424913  31.0254083  54.7878553  60.5024913  31.1124083
  55.5438553  60.3334913  31.2324083  36.9588553  62.7324913  21.6964083
  36.7738553  61.8934913  21.8484083  37.6178553  62.6964913  21.1264083
  37.0288553  62.6034913  21.6344083  53.3168553  55.6224913  21.0244083
  54.0628553  55.2154913  21.2234083  53.5798553  56.3374913  20.5994083
  53.4658553  55.6684913  20.9914083  37.1308553  66.8964913  21.2714083
  37.6828553  67.4654913  21.6354083  36.8988553  66.3814913  21.9364083
  37.1778553  66.9044913  21.4234083  41.3348553  65.8964913  28.3604083
  41.8018553  66.1854913  29.0384083  41.9068553  65.4184913  27.9064083
  41.4888553  65.8684913  28.3934083  49.7708553  57.9104913  26.0974083
  50.1148553  58.0624913  26.8844083  49.3178553  57.1724913  26.2104083
  49.7548553  57.8234913  26.2304083  36.9608553  65.3454913  18.8994083
  37.7168553  64.9134913  18.9574083  36.9758553  65.8774913  19.5904083
  37.0748553  65.3604913  19.0104083  37.9008553  63.5664913  26.9044083
  38.3318553  63.4374913  26.1574083  37.6958553  64.4144913  26.8784083
  37.9338553  63.6724913  26.7904083  44.2468553  57.1304913  20.5544083
  44.2448553  57.0134913  19.6894083  44.0658553  57.9784913  20.6464083
  44.2198553  57.2384913  20.4404083  41.9848553  67.0824913  25.1864083
  42.1108553  67.9254913  25.3734083  42.6528553  66.6834913  25.5824083
  42.1028553  67.1484913  25.2724083  40.1148553  60.5654913  35.0484083
  39.5788553  60.0594913  35.5164083  40.1348553  60.1754913  34.2684083
  40.0378553  60.4324913  35.0024083  40.5998553  59.9624913  20.1884083
  40.4718553  59.5144913  20.9264083  40.0178553  59.6204913  19.6364083
  40.4948553  59.8454913  20.2164083  40.7668553  61.7924913  26.7874083
  39.9858553  61.7334913  26.4044083  40.8388553  61.0404913  27.2244083
  40.6618553  61.6734913  26.7954083  41.1968553  61.5294913  30.2554083
  41.2218553  60.8544913  29.7044083  40.5508553  62.0254913  29.9434083
  41.1058553  61.5024913  30.1284083  51.0918553  59.2424913  28.6514083
  50.4298553  59.5704913  29.1144083  51.2788553  59.8764913  28.0824083
  51.0218553  59.3844913  28.6354083  47.7368553  55.1484913  32.0804083
  47.8858553  54.3234913  31.8374083  48.1158553  55.2034913  32.8644083
  47.8148553  55.0344913  32.1604083  49.2848553  57.2114913  22.1624083
  49.7748553  57.9284913  22.0854083  48.4948553  57.4724913  21.8994083
  49.2408553  57.3554913  22.1124083  38.9958553  62.8844913  35.8144083
  38.9588553  63.3854913  35.1004083  39.3268553  62.1324913  35.5194083
  39.0388553  62.8464913  35.6654083  50.5988553  65.0894913  34.0724083
  51.0828553  65.8074913  34.1704083  50.9928553  64.6624913  33.4214083
  50.7288553  65.1324913  33.9904083  44.8948553  67.9344913  35.2494083
  45.2488553  67.7564913  36.0264083  44.4588553  67.2054913  35.0504083
  44.8828553  67.8004913  35.3354083  45.8668553  58.6814913  27.8874083
  46.3468553  59.3804913  28.0954083  46.2398553  58.0344913  28.3384083
  45.9928553  58.6894913  27.9844083  48.0558553  61.8504913  20.1614083
  48.0478553  62.5724913  19.6714083  47.4168553  61.9854913  20.7384083
  47.9608553  61.9774913  20.1744083  53.0278553  65.7204913  24.1424083
  53.3838553  65.3704913  24.8574083  53.0198553  65.0594913  23.5724083
  53.0798553  65.5704913  24.1634083  49.0858553  65.6374913  27.3864083
  48.2888553  65.8614913  27.6604083  49.3438553  65.0434913  27.9714083
  49.0058553  65.5824913  27.5134083  42.6488553  54.1924913  19.8224083
  42.7458553  54.0854913  20.6834083  41.9408553  54.6984913  19.7574083
  42.5588553  54.2514913  19.9404083  52.3458553  63.6354913  32.2324083
  52.4008553  63.7604913  31.3704083  53.0988553  63.9554913  32.5344083
  52.4648553  63.7004913  32.1494083  53.3778553  53.9334913  35.2194083
  52.7408553  53.5334913  34.7774083  53.4038553  53.5024913  35.9774083
  53.2878553  53.8114913  35.2654083  39.7708553  62.4994913  21.0654083
  40.0948553  61.7204913  20.8434083  40.4168553  62.8674913  21.5204083
  39.9138553  62.4384913  21.0994083  48.0768553  63.4414913  31.8324083
  47.9218553  64.0514913  32.4364083  48.6108553  62.8834913  32.2384083
  48.1328553  63.4494913  31.9814083  36.7678553  54.1604913  22.0334083
  36.8968553  53.4524913  21.5414083  36.4008553  53.8424913  22.7584083
  36.7328553  54.0084913  22.0684083  46.4608553  61.8414913  22.4904083
  46.5198553  62.4914913  23.0694083  46.2718553  61.1454913  22.9814083
  46.4418553  61.8344913  22.6484083  51.6868553  66.1704913  28.3594083
  51.2078553  66.4684913  27.6934083  51.3308553  65.3944913  28.5374083
  51.5638553  66.0994913  28.2874083  40.9568553  56.3584913  19.0024083
  40.4458553  56.4114913  18.2964083  41.7408553  56.5984913  18.7064083
  40.9968553  56.4014913  18.8544083  45.6838553  63.8884913  26.9214083
  44.8368553  63.6944913  27.0024083  46.0078553  63.7234913  27.7144083
  45.6058553  63.8354913  27.0504083  39.5318553  63.5814913  29.2374083
  40.2538553  64.0694913  29.2004083  39.2618553  63.5514913  28.4084083
  39.5988553  63.6494913  29.1094083  42.7618553  58.7524913  25.9724083
  43.6078553  58.5624913  26.0704083  42.3918553  57.9754913  25.8344083
  42.8318553  58.6094913  25.9664083  37.5828553  60.0904913  22.6274083
  38.0718553  59.7984913  23.2884083  37.7118553  59.4974913  22.0004083
  37.6738553  59.9594913  22.6324083  52.6178553  63.1124913  29.4784083
  52.6108553  62.3364913  29.8764083  51.7768553  63.3464913  29.4714083
  52.4928553  63.0324913  29.5364083  42.1078553  61.5244913  18.1134083
  41.4978553  61.1194913  18.5874083  41.7218553  61.6424913  17.3404083
  41.9608553  61.4814913  18.0694083  38.9268553  64.6334913  33.5154083
  38.5058553  64.1154913  32.9544083  38.5748553  65.4194913  33.3724083
  38.8128553  64.6734913  33.4114083  53.8738553  63.1834913  26.9154083
  53.5878553  63.5844913  27.6354083  54.7338553  63.1214913  27.0424083
  53.9588553  63.2334913  27.0404083  43.5628553  59.9854913  20.8234083
  43.8348553  60.8114913  20.8904083  42.6998553  60.0604913  20.7274083
  43.4758553  60.1184913  20.8184083  51.5358553  57.1074913  35.4554083
  51.0108553  57.5664913  35.9794083  51.1748553  56.3124913  35.4494083
  51.4048553  57.0574913  35.5314083  37.0428553  55.9554913  27.3594083
  37.0868553  56.2994913  26.5584083  37.7978553  56.1924913  27.7264083
  37.1608553  56.0414913  27.2954083  50.0278553  60.6764913  35.5314083
  50.1008553  60.7804913  36.3944083  49.3938553  61.2344913  35.3104083
  49.9448553  60.7744913  35.6264083  52.2958553  60.9954913  33.8964083
  52.6148553  61.7814913  34.0994083  51.9258553  60.7254913  34.6394083
  52.2888553  61.0714913  34.0364083  51.6098553  67.4194913  19.4264083
  51.9438553  66.6134913  19.4614083  50.8548553  67.3474913  19.8564083
  51.5478553  67.2894913  19.4954083  52.0918553  59.2534913  25.0854083
  51.3468553  58.9304913  25.4034083  52.0938553  60.0794913  25.3654083
  51.9818553  59.3274913  25.1734083  54.9938553  61.5374913  36.6314083
  54.9418553  61.1964913  35.8304083  55.7308553  62.0044913  36.6094083
  55.0948553  61.5564913  36.5094083  54.5318553  65.2134913  32.8374083
  55.1598553  64.6644913  32.5814083  54.4708553  65.7784913  32.1754083
  54.6158553  65.2164913  32.7014083  48.9838553  65.2944913  18.8294083
  49.6678553  64.7804913  18.6604083  48.5668553  65.3404913  18.0644083
  49.0228553  65.2254913  18.6914083  43.6658553  66.4444913  30.1334083
  43.3678553  67.0364913  30.7004083  43.7208553  66.8864913  29.3844083
  43.6298553  66.5974913  30.1064083  41.6448553  65.3944913  33.5314083
  40.8388553  65.1044913  33.6984083  41.5558553  66.2624913  33.5374083
  41.5128553  65.4794913  33.5564083  51.0038553  55.5834913  32.5464083
  51.7478553  56.0354913  32.4834083  50.4378553  56.0534913  32.0774083
  51.0308553  55.7204913  32.4684083  46.1818553  62.8674913  29.6244083
  46.6578553  63.2414913  30.2524083  45.3588553  63.0014913  29.8834083
  46.1308553  62.9424913  29.7554083  42.8918553  58.4704913  32.3654083
  43.0528553  57.7264913  32.7924083  42.8468553  58.2214913  31.5304083
  42.9088553  58.3234913  32.3054083  52.2888553  53.5634913  30.2164083
  52.0088553  54.3884913  30.1724083  53.0048553  53.6164913  30.7124083
  52.3538553  53.6934913  30.2834083  44.6438553  54.2784913  32.2454083
  45.3488553  54.5984913  31.8434083  44.8848553  53.4714913  32.4724083
  44.7828553  54.2064913  32.2194083  47.9378553  65.1224913  35.2304083
  48.6948553  65.4084913  34.9044083  47.3908553  65.1744913  34.5524083
  47.9688553  65.1724913  35.0814083  53.7098553  59.8184913  19.0734083
  54.0878553  60.4954913  18.6734083  52.8678553  60.0424913  19.1044083
  53.6408553  59.9514913  19.0184083  45.2228553  63.2644913  18.1564083
  44.4178553  63.0874913  17.8714083  45.1898553  64.1154913  18.3484083
  45.0988553  63.3634913  18.1434083  41.1528553  59.3314913  28.3064083
  41.5928553  59.2284913  27.5604083  41.6978553  59.0184913  28.9114083
  41.2978553  59.2704913  28.2854083  49.1688553  58.4334913  33.8984083
  48.5208553  58.9034913  34.2464083  49.7338553  58.3444913  34.5574083
  49.1568553  58.4894913  34.0474083  48.8568553  59.9704913  30.1964083
  49.1588553  60.3904913  30.8994083  48.8928553  59.1304913  30.4284083
  48.9068553  59.9084913  30.3344083  51.4048553  59.4174913  22.4484083
  51.6118553  59.2164913  23.2724083  52.1608553  59.6854913  22.1064083
  51.5468553  59.4274913  22.5194083  44.6998553  54.3164913  28.3534083
  43.8738553  54.1674913  28.5904083  44.6598553  54.3514913  27.4824083
  44.5718553  54.2994913  28.2594083  52.4268553  55.5004913  23.9224083
  51.7128553  55.0294913  24.0934083  52.2648553  55.8414913  23.1364083
  52.2978553  55.4814913  23.8314083  52.8698553  63.4444913  22.3024083
  53.3458553  62.7154913  22.2544083  52.0488553  63.1584913  22.2264083
  52.8188553  63.2944913  22.2834083  46.3408553  65.3564913  33.1414083
  45.5458553  65.2924913  33.4924083  46.4118553  66.2034913  32.9464083
  46.2338553  65.4714913  33.1644083  37.2648553  54.7144913  34.3884083
  37.1248553  55.5094913  34.0574083  36.4788553  54.4714913  34.6774083
  37.1278553  54.7964913  34.3824083  40.3288553  57.4584913  21.6134083
  40.4548553  57.1294913  20.8154083  39.5168553  57.2094913  21.8124083
  40.2278553  57.3734913  21.5254083  49.0858553  64.6114913  24.6574083
  49.1618553  64.9524913  25.4564083  49.2548553  63.7644913  24.7784083
  49.1218553  64.5364913  24.7934083  46.6078553  63.8854913  24.2224083
  46.3098553  63.5704913  24.9794083  47.3028553  64.3584913  24.4574083
  46.6668553  63.9084913  24.3694083  55.0058553  60.6124913  34.0604083
  54.1508553  60.4904913  34.1864083  55.1588553  60.2174913  33.2974083
  54.9018553  60.5354913  33.9664083  49.5188553  61.2774913  32.6364083
  49.2638553  60.5584913  33.0584083  50.3398553  61.3934913  32.9064083
  49.6028553  61.1884913  32.7384083  47.4528553  62.4674913  35.8234083
  47.7758553  63.1534913  35.3914083  46.7488553  62.7904913  36.2254083
  47.3958553  62.6164913  35.8184083  47.2378553  65.9314913  29.6824083
  46.5438553  66.3334913  30.0254083  47.9148553  66.3644913  30.0214083
  47.2348553  66.0544913  29.7834083  40.3058553  59.4694913  32.0294083
  40.6808553  60.0884913  31.5424083  40.9798553  58.9954913  32.3144083
  40.4608553  59.4914913  31.9994083  38.0808553  57.9174913  31.3044083
  38.1578553  57.7484913  30.4514083  38.8268553  58.3234913  31.5014083
  38.2018553  57.9524913  31.2074083  53.6398553  60.5574913  21.7444083
  53.7428553  60.4994913  20.8804083  54.3808553  60.2254913  22.0624083
  53.7648553  60.5004913  21.6634083  40.6348553  55.3274913  33.7154083
  40.5538553  54.4834913  33.9214083  40.3208553  55.3714913  32.9024083
  40.5768553  55.2094913  33.6254083  52.7418553  60.7034913  31.1004083
  52.7398553  59.8404913  31.2244083  52.8088553  61.0274913  31.9074083
  52.7518553  60.6234913  31.2374083  37.4778553  63.1434913  31.5284083
  37.7978553  63.3624913  30.7474083  37.3778553  62.2784913  31.4734083
  37.5098553  63.0484913  31.4054083  38.9338553  59.0794913  18.1464083
  38.2618553  59.0934913  18.7024083  39.0288553  58.2314913  17.9624083
  38.8488553  58.9564913  18.2014083  48.6208553  55.5034913  34.8824083
  48.7128553  56.2154913  35.3764083  47.9838553  55.0584913  35.2794083
  48.5398553  55.5424913  35.0144083  47.6148553  55.6934913  25.7364083
  46.9148553  56.2114913  25.6804083  47.6528553  55.3134913  24.9524083
  47.5168553  55.7144913  25.6124083  42.9218553  67.7844913  19.2604083
  43.3628553  67.8644913  20.0084083  42.1168553  67.5684913  19.5184083
  42.8678553  67.7644913  19.4094083  51.2128553  56.2094913  28.5364083
  52.0678553  56.3084913  28.6814083  50.8438553  56.7624913  29.1014083
  51.2848553  56.3064913  28.6414083  42.2408553  62.4354913  32.9134083
  41.8448553  63.2094913  32.9884083  41.8348553  62.0624913  32.2374083
  42.1228553  62.4944913  32.8244083  51.5168553  61.4894913  27.0274083
  52.1828553  62.0304913  27.1874083  51.1718553  61.8004913  26.2884083
  51.5638553  61.6154913  26.9424083  40.2508553  66.8544913  19.8614083
  40.0068553  66.5474913  20.6414083  40.2178553  66.1514913  19.3454083
  40.2098553  66.7054913  19.9004083  43.0698553  65.0994913  18.6044083
  42.2518553  64.8314913  18.7444083  43.0418553  65.9514913  18.7894083
  42.9448553  65.1864913  18.6524083  42.6698553  55.4124913  30.3634083
  41.8058553  55.4964913  30.4434083  42.8898553  54.8984913  31.0324083
  42.5748553  55.3494913  30.4744083  54.6878553  54.0474913  31.6924083
  54.6358553  54.0034913  32.5624083  55.3748553  53.5444913  31.5024083
  54.7818553  53.9674913  31.7924083  46.7728553  56.1604913  28.7374083
  46.0358553  55.7064913  28.8504083  47.3438553  55.7584913  29.2604083
  46.7478553  56.0334913  28.8314083  49.5048553  67.0084913  30.5254083
  49.7108553  67.3094913  31.3174083  49.4438553  67.7304913  30.0404083
  49.5258553  67.1594913  30.5704083  44.2758553  60.4894913  33.9414083
  43.9538553  59.9134913  33.3714083  43.9168553  61.2444913  33.6954083
  44.1758553  60.5154913  33.8214083  45.0718553  53.7414913  18.5684083
  45.1498553  53.9884913  17.7354083  44.3288553  54.1184913  18.8264083
  44.9738553  53.8334913  18.4834083  54.3168553  65.6474913  29.9834083
  54.2848553  64.7854913  29.8484083  53.6238553  65.9494913  29.5494083
  54.2098553  65.5644913  29.8994083  39.8898553  55.4954913  31.0114083
  39.5468553  54.7284913  30.7774083  39.1948553  56.0194913  31.0754083
  39.7368553  55.4594913  30.9864083  48.9358553  54.3514913  27.9884083
  49.6058553  54.8954913  28.1154083  48.4328553  54.7754913  27.4154083
  48.9608553  54.4944913  27.9224083  48.2948553  60.1594913  25.4814083
  48.8458553  59.5524913  25.7814083  47.8698553  60.4224913  26.1964083
  48.3138553  60.1084913  25.6304083  38.5428553  58.8094913  24.9674083
  38.1748553  59.1114913  25.6984083  39.0768553  58.1804913  25.2514083
  38.5668553  58.7614913  25.1174083  38.2308553  67.2174913  32.4784083
  37.6568553  67.6334913  32.9874083  38.9638553  67.6824913  32.5734083
  38.2548553  67.3474913  32.5674083  50.2648553  61.9904913  22.0434083
  50.3328553  61.1404913  22.2244083  49.4418553  62.0764913  21.7654083
  50.1528553  61.8774913  22.0294083  44.1838553  62.8814913  20.9814083
  44.2838553  63.0204913  20.1264083  45.0018553  62.8214913  21.2774083
  44.3188553  62.8924913  20.8984083  53.5388553  63.3634913  35.1944083
  54.1728553  63.1934913  35.7684083  53.9558553  63.7664913  34.5424083
  53.6938553  63.3984913  35.1834083  49.4188553  67.2104913  20.7834083
  49.1678553  67.0824913  21.6094083  49.1018553  66.5154913  20.3624083
  49.3348553  67.0894913  20.8434083  54.1638553  57.9274913  35.9324083
  53.9678553  58.5714913  36.4874083  53.4418553  57.4374913  35.9244083
  54.0288553  57.9504913  36.0134083  54.0628553  58.8684913  28.9034083
  53.2298553  59.1184913  28.8314083  54.0068553  58.0284913  29.1324083
  53.9318553  58.7814913  28.9264083  43.3228553  55.8564913  34.0974083
  43.5568553  55.2804913  33.4844083  42.4808553  55.6754913  34.2384083
  43.2328553  55.7444913  34.0274083  50.9498553  63.4744913  36.5494083
  51.8208553  63.4384913  36.5134083  50.7308553  63.8944913  35.8174083
  51.0468553  63.5304913  36.4364083  46.3048553  65.4184913  20.2134083
  47.0218553  65.0714913  19.8574083  46.2708553  66.2184913  19.8654083
  46.4058553  65.4854913  20.1094083  47.7138553  54.0594913   4.4521673
  47.4688553  54.5474913   3.7721673  48.5768553  53.9864913   4.3521673
  47.8048553  54.1204913   4.3371673  47.5228553  60.9754913   9.1231673
  46.9988553  61.5714913   9.4861673  47.9198553  60.6074913   9.8071673
  47.5038553  61.0094913   9.2781673  37.3918553  65.1154913   4.5791673
  36.9508553  65.2334913   5.3221673  37.1088553  64.3404913   4.2941673
  37.2848553  65.0184913   4.6471673  50.1938553  62.0424913   5.7991673
  50.2738553  62.0464913   4.9301673  49.6098553  61.4104913   5.9481673
  50.1188553  61.9494913   5.6931673  39.9008553  65.8114913   3.6581673
  40.5088553  65.6414913   4.2611673  39.1498553  65.6714913   4.0791673
  39.8798553  65.7654913   3.8091673  44.1828553  55.1464913   3.6071673
  44.1128553  55.8234913   3.0611673  44.9238553  54.7584913   3.3581673
  44.2818553  55.1894913   3.4891673  37.3318553  67.8504913  10.8341673
  37.4608553  67.5704913  11.6501673  36.7218553  67.3094913  10.5251673
  37.2608553  67.7294913  10.9091673  43.9058553  65.3754913  15.9011673
  43.6698553  65.3724913  16.7411673  43.1578553  65.2274913  15.4771673
  43.7598553  65.3524913  15.9621673  38.7778553  62.3714913   5.0361673
  38.3158553  61.9794913   4.4091673  39.4778553  61.8584913   5.1281673
  38.8128553  62.2384913   4.9571673  43.2858553  57.9814913  10.3831673
  43.9638553  57.9994913   9.8341673  43.2408553  57.1454913  10.6281673
  43.3788553  57.8604913  10.3381673  40.7788553  60.4714913   5.0591673
  41.5958553  60.2844913   5.3021673  40.3018553  59.8574913   5.4551673
  40.8288553  60.3534913   5.1541673  44.9828553  66.4524913   7.6691673
  45.3308553  65.6534913   7.6991673  45.6478553  66.9564913   7.4141673
  45.1328553  66.4084913   7.6361673  45.0398553  65.9014913   3.8801673
  45.3708553  65.2574913   4.3661673  45.2798553  65.6904913   3.0691673
  45.1238553  65.7754913   3.8321673  47.0078553  60.0324913  15.2191673
  46.1598553  59.9334913  15.0411673  47.0368553  60.7774913  15.6731673
  46.8868553  60.1284913  15.2601673  41.3758553  55.5654913   4.3251673
  41.0798553  56.0664913   3.6751673  42.2428553  55.6434913   4.2681673
  41.4598553  55.6514913   4.2211673  51.5658553  52.9924913  14.3331673
  51.4078553  53.7614913  13.9511673  50.7938553  52.7724913  14.6771673
  51.4278553  53.0734913  14.3281673  44.3548553  54.7074913   6.5481673
  44.4278553  55.5674913   6.6771673  44.3168553  54.6324913   5.6801673
  44.3598553  54.8234913   6.4391673  37.2338553  60.1324913   8.0491673
  36.9778553  60.9634913   7.9741673  36.5698553  59.7494913   8.4661673
  37.0978553  60.1984913   8.1001673  42.9838553  67.6864913   3.4291673
  42.4048553  67.4114913   4.0211673  43.6078553  67.0774913   3.4541673
  42.9908553  67.5564913   3.5201673  40.2628553  54.9494913   8.5401673
  39.7418553  54.3214913   8.2321673  40.8538553  54.5124913   9.0111673
  40.2738553  54.7914913   8.5641673  43.5688553  57.0824913  17.8381673
  43.6858553  56.6284913  17.1021673  43.8568553  57.8804913  17.6351673
  43.6288553  57.1334913  17.6991673  54.4218553  57.6064913   5.1421673
  54.0758553  58.2844913   5.5681673  53.7858553  57.0084913   5.1581673
  54.2768553  57.6184913   5.2071673  39.3018553  56.6794913  16.8221673
  38.5238553  56.2894913  16.7501673  39.7928553  56.2674913  16.2311673
  39.2588553  56.5604913  16.7241673  39.5068553  66.9994913   7.3801673
  39.9298553  66.6434913   6.7061673  39.8308553  66.5774913   8.0721673
  39.6168553  66.8844913   7.3831673  45.9508553  54.3224913  15.9901673
  46.1288553  53.5134913  15.7151673  45.8078553  54.7634913  15.2511673
  45.9558553  54.2684913  15.8401673  46.5448553  59.2484913   4.7631673
  46.8318553  59.0164913   3.9731673  47.2768553  59.3274913   5.2321673
  46.6948553  59.2254913   4.7161673  54.0968553  55.9294913  10.5111673
  54.8538553  56.0014913  10.0831673  54.1598553  55.1564913  10.9101673
  54.2178553  55.8264913  10.5061673  36.6498553  57.2274913  14.4081673
  36.6458553  57.8144913  15.0541673  37.2438553  57.5394913  13.8511673
  36.7368553  57.3604913  14.4211673  48.9878553  67.5614913  14.9501673
  48.9538553  67.9434913  15.7341673  49.8418553  67.5194913  14.7791673
  49.1088553  67.6114913  15.0411673  37.5868553  56.8224913   3.3231673
  37.4728553  55.9584913   3.3541673  37.1118553  57.1164913   3.9931673
  37.4998553  56.7384913   3.4261673  46.8908553  58.0304913   2.0681673
  46.3828553  57.3684913   1.8141673  46.9428553  58.5344913   1.3581673
  46.8238553  58.0074913   1.9261673  46.8908553  54.9714913   1.9591673
  46.4358553  54.5694913   1.3331673  47.6638553  55.1264913   1.5841673
  46.9378553  54.9354913   1.8111673  45.4888553  57.3384913   6.4811673
  45.5628553  57.9064913   5.8231673  45.6098553  57.8304913   7.1911673
  45.5168553  57.4954913   6.4891673  50.7138553  67.1734913   4.8931673
  51.4148553  66.6914913   5.0821673  50.0538553  66.6044913   4.9381673
  50.7198553  67.0184913   4.9271673  40.0968553  53.1614913   4.8291673
  40.6328553  53.8494913   4.8191673  40.0998553  52.8874913   4.0011673
  40.1758553  53.2224913   4.7051673  43.0528553  63.5944913   8.8541673
  43.2248553  63.3844913   9.6831673  42.3978553  63.0604913   8.6381673
  42.9818553  63.4844913   8.9451673  49.2808553  57.5084913  12.3691673
  49.1858553  57.8274913  13.1751673  48.6878553  56.8694913  12.3311673
  49.1788553  57.4604913  12.4831673  43.8028553  63.5324913  11.4441673
  43.8558553  64.3794913  11.6461673  43.5178553  63.1624913  12.1811673
  43.7688553  63.6024913  11.5821673  49.9798553  64.2274913  10.5741673
  49.4658553  63.8154913  11.1451673  49.8538553  65.0714913  10.7551673
  49.8858553  64.2914913  10.6851673  50.5368553  53.4524913   5.2051673
  50.5858553  53.1344913   6.0161673  50.8598553  52.8084913   4.7121673
  50.5918553  53.3104913   5.2521673  53.0008553  57.6884913  13.5131673
  53.7728553  57.4634913  13.8501673  52.5258553  57.9054913  14.2131673
  53.0448553  57.6874913  13.6661673  40.5448553  56.9714913   6.4831673
  40.8168553  56.5414913   5.7751673  40.3688553  56.3354913   7.0541673
  40.5588553  56.8144913   6.4631673  40.3688553  64.3984913   6.0321673
  41.2198553  64.3184913   5.8591673  40.0118553  63.7164913   5.6201673
  40.4418553  64.2854913   5.9451673  38.6858553  58.0734913   9.5651673
  39.5288553  58.2934913   9.5221673  38.2968553  58.6464913   9.0341673
  38.7528553  58.1904913   9.4801673  42.7368553  64.4054913   4.2671673
  43.4498553  64.9004913   4.3571673  42.9588553  63.8384913   3.6411673
  42.8748553  64.3944913   4.1881673  36.8928553  66.0484913   7.5871673
  36.2258553  66.5364913   7.8631673  37.5728553  66.5934913   7.6161673
  36.8948553  66.2004913   7.6321673  44.5398553  59.7584913  17.6831673
  44.0558553  60.3354913  18.1251673  44.5118553  60.0534913  16.8621673
  44.4638553  59.8874913  17.6271673  55.6378553  60.4424913  12.2951673
  55.8528553  59.6424913  12.0191673  54.7878553  60.5024913  12.1061673
  55.5438553  60.3334913  12.2261673  36.9588553  62.7324913   2.6901673
  36.7738553  61.8934913   2.8421673  37.6178553  62.6964913   2.1201673
  37.0288553  62.6034913   2.6281673  53.3168553  55.6224913   2.0181673
  54.0628553  55.2154913   2.2171673  53.5798553  56.3374913   1.5931673
  53.4658553  55.6684913   1.9851673  37.1308553  66.8964913   2.2651673
  37.6828553  67.4654913   2.6291673  36.8988553  66.3814913   2.9301673
  37.1778553  66.9044913   2.4171673  41.3348553  65.8964913   9.3541673
  41.8018553  66.1854913  10.0321673  41.9068553  65.4184913   8.9001673
  41.4888553  65.8684913   9.3871673  49.7708553  57.9104913   7.0911673
  50.1148553  58.0624913   7.8781673  49.3178553  57.1724913   7.2041673
  49.7548553  57.8234913   7.2241673  37.9008553  63.5664913   7.8981673
  38.3318553  63.4374913   7.1511673  37.6958553  64.4144913   7.8721673
  37.9338553  63.6724913   7.7841673  41.9848553  67.0824913   6.1801673
  42.1108553  67.9254913   6.3671673  42.6528553  66.6834913   6.5761673
  42.1028553  67.1484913   6.2661673  40.1148553  60.5654913  16.0421673
  39.5788553  60.0594913  16.5101673  40.1348553  60.1754913  15.2621673
  40.0378553  60.4324913  15.9961673  40.7668553  61.7924913   7.7811673
  39.9858553  61.7334913   7.3981673  40.8388553  61.0404913   8.2181673
  40.6618553  61.6734913   7.7891673  41.1968553  61.5294913  11.2491673
  41.2218553  60.8544913  10.6981673  40.5508553  62.0254913  10.9371673
  41.1058553  61.5024913  11.1221673  51.0918553  59.2424913   9.6451673
  50.4298553  59.5704913  10.1081673  51.2788553  59.8764913   9.0761673
  51.0218553  59.3844913   9.6291673  47.7368553  55.1484913  13.0741673
  47.8858553  54.3234913  12.8311673  48.1158553  55.2034913  13.8581673
  47.8148553  55.0344913  13.1541673  49.2848553  57.2114913   3.1561673
  49.7748553  57.9284913   3.0791673  48.4948553  57.4724913   2.8931673
  49.2408553  57.3554913   3.1061673  38.9958553  62.8844913  16.8081673
  38.9588553  63.3854913  16.0941673  39.3268553  62.1324913  16.5131673
  39.0388553  62.8464913  16.6591673  50.5988553  65.0894913  15.0661673
  51.0828553  65.8074913  15.1641673  50.9928553  64.6624913  14.4151673
  50.7288553  65.1324913  14.9841673  44.8948553  67.9344913  16.2431673
  45.2488553  67.7564913  17.0201673  44.4588553  67.2054913  16.0441673
  44.8828553  67.8004913  16.3291673  45.8668553  58.6814913   8.8811673
  46.3468553  59.3804913   9.0891673  46.2398553  58.0344913   9.3321673
  45.9928553  58.6894913   8.9781673  53.0278553  65.7204913   5.1361673
  53.3838553  65.3704913   5.8511673  53.0198553  65.0594913   4.5661673
  53.0798553  65.5704913   5.1571673  49.0858553  65.6374913   8.3801673
  48.2888553  65.8614913   8.6541673  49.3438553  65.0434913   8.9651673
  49.0058553  65.5824913   8.5071673  52.3458553  63.6354913  13.2261673
  52.4008553  63.7604913  12.3641673  53.0988553  63.9554913  13.5281673
  52.4648553  63.7004913  13.1431673  53.3778553  53.9334913  16.2131673
  52.7408553  53.5334913  15.7711673  53.4038553  53.5024913  16.9711673
  53.2878553  53.8114913  16.2591673  39.7708553  62.4994913   2.0591673
  40.0948553  61.7204913   1.8371673  40.4168553  62.8674913   2.5141673
  39.9138553  62.4384913   2.0931673  48.0768553  63.4414913  12.8261673
  47.9218553  64.0514913  13.4301673  48.6108553  62.8834913  13.2321673
  48.1328553  63.4494913  12.9751673  36.7678553  54.1604913   3.0271673
  36.8968553  53.4524913   2.5351673  36.4008553  53.8424913   3.7521673
  36.7328553  54.0084913   3.0621673  46.4608553  61.8414913   3.4841673
  46.5198553  62.4914913   4.0631673  46.2718553  61.1454913   3.9751673
  46.4418553  61.8344913   3.6421673  51.6868553  66.1704913   9.3531673
  51.2078553  66.4684913   8.6871673  51.3308553  65.3944913   9.5311673
  51.5638553  66.0994913   9.2811673  45.6838553  63.8884913   7.9151673
  44.8368553  63.6944913   7.9961673  46.0078553  63.7234913   8.7081673
  45.6058553  63.8354913   8.0441673  39.5318553  63.5814913  10.2311673
  40.2538553  64.0694913  10.1941673  39.2618553  63.5514913   9.4021673
  39.5988553  63.6494913  10.1031673  42.7618553  58.7524913   6.9661673
  43.6078553  58.5624913   7.0641673  42.3918553  57.9754913   6.8281673
  42.8318553  58.6094913   6.9601673  37.5828553  60.0904913   3.6211673
  38.0718553  59.7984913   4.2821673  37.7118553  59.4974913   2.9941673
  37.6738553  59.9594913   3.6261673  52.6178553  63.1124913  10.4721673
  52.6108553  62.3364913  10.8701673  51.7768553  63.3464913  10.4651673
  52.4928553  63.0324913  10.5301673  38.9268553  64.6334913  14.5091673
  38.5058553  64.1154913  13.9481673  38.5748553  65.4194913  14.3661673
  38.8128553  64.6734913  14.4051673  53.8738553  63.1834913   7.9091673
  53.5878553  63.5844913   8.6291673  54.7338553  63.1214913   8.0361673
  53.9588553  63.2334913   8.0341673  43.5628553  59.9854913   1.8171673
  43.8348553  60.8114913   1.8841673  42.6998553  60.0604913   1.7211673
  43.4758553  60.1184913   1.8121673  51.5358553  57.1074913  16.4491673
  51.0108553  57.5664913  16.9731673  51.1748553  56.3124913  16.4431673
  51.4048553  57.0574913  16.5251673  37.0428553  55.9554913   8.3531673
  37.0868553  56.2994913   7.5521673  37.7978553  56.1924913   8.7201673
  37.1608553  56.0414913   8.2891673  50.0278553  60.6764913  16.5251673
  50.1008553  60.7804913  17.3881673  49.3938553  61.2344913  16.3041673
  49.9448553  60.7744913  16.6201673  52.2958553  60.9954913  14.8901673
  52.6148553  61.7814913  15.0931673  51.9258553  60.7254913  15.6331673
  52.2888553  61.0714913  15.0301673  52.0918553  59.2534913   6.0791673
  51.3468553  58.9304913   6.3971673  52.0938553  60.0794913   6.3591673
  51.9818553  59.3274913   6.1671673  54.9938553  61.5374913  17.6251673
  54.9418553  61.1964913  16.8241673  55.7308553  62.0044913  17.6031673
  55.0948553  61.5564913  17.5031673  54.5318553  65.2134913  13.8311673
  55.1598553  64.6644913  13.5751673  54.4708553  65.7784913  13.1691673
  54.6158553  65.2164913  13.6951673  43.6658553  66.4444913  11.1271673
  43.3678553  67.0364913  11.6941673  43.7208553  66.8864913  10.3781673
  43.6298553  66.5974913  11.1001673  41.6448553  65.3944913  14.5251673
  40.8388553  65.1044913  14.6921673  41.5558553  66.2624913  14.5311673
  41.5128553  65.4794913  14.5501673  51.0038553  55.5834913  13.5401673
  51.7478553  56.0354913  13.4771673  50.4378553  56.0534913  13.0711673
  51.0308553  55.7204913  13.4621673  46.1818553  62.8674913  10.6181673
  46.6578553  63.2414913  11.2461673  45.3588553  63.0014913  10.8771673
  46.1308553  62.9424913  10.7491673  42.8918553  58.4704913  13.3591673
  43.0528553  57.7264913  13.7861673  42.8468553  58.2214913  12.5241673
  42.9088553  58.3234913  13.2991673  52.2888553  53.5634913  11.2101673
  52.0088553  54.3884913  11.1661673  53.0048553  53.6164913  11.7061673
  52.3538553  53.6934913  11.2771673  44.6438553  54.2784913  13.2391673
  45.3488553  54.5984913  12.8371673  44.8848553  53.4714913  13.4661673
  44.7828553  54.2064913  13.2131673  47.9378553  65.1224913  16.2241673
  48.6948553  65.4084913  15.8981673  47.3908553  65.1744913  15.5461673
  47.9688553  65.1724913  16.0751673  41.1528553  59.3314913   9.3001673
  41.5928553  59.2284913   8.5541673  41.6978553  59.0184913   9.9051673
  41.2978553  59.2704913   9.2791673  49.1688553  58.4334913  14.8921673
  48.5208553  58.9034913  15.2401673  49.7338553  58.3444913  15.5511673
  49.1568553  58.4894913  15.0411673  48.8568553  59.9704913  11.1901673
  49.1588553  60.3904913  11.8931673  48.8928553  59.1304913  11.4221673
  48.9068553  59.9084913  11.3281673  51.4048553  59.4174913   3.4421673
  51.6118553  59.2164913   4.2661673  52.1608553  59.6854913   3.1001673
  51.5468553  59.4274913   3.5131673  44.6998553  54.3164913   9.3471673
  43.8738553  54.1674913   9.5841673  44.6598553  54.3514913   8.4761673
  44.5718553  54.2994913   9.2531673  52.4268553  55.5004913   4.9161673
  51.7128553  55.0294913   5.0871673  52.2648553  55.8414913   4.1301673
  52.2978553  55.4814913   4.8251673  52.8698553  63.4444913   3.2961673
  53.3458553  62.7154913   3.2481673  52.0488553  63.1584913   3.2201673
  52.8188553  63.2944913   3.2771673  46.3408553  65.3564913  14.1351673
  45.5458553  65.2924913  14.4861673  46.4118553  66.2034913  13.9401673
  46.2338553  65.4714913  14.1581673  37.2648553  54.7144913  15.3821673
  37.1248553  55.5094913  15.0511673  36.4788553  54.4714913  15.6711673
  37.1278553  54.7964913  15.3761673  40.3288553  57.4584913   2.6071673
  40.4548553  57.1294913   1.8091673  39.5168553  57.2094913   2.8061673
  40.2278553  57.3734913   2.5191673  49.0858553  64.6114913   5.6511673
  49.1618553  64.9524913   6.4501673  49.2548553  63.7644913   5.7721673
  49.1218553  64.5364913   5.7871673  46.6078553  63.8854913   5.2161673
  46.3098553  63.5704913   5.9731673  47.3028553  64.3584913   5.4511673
  46.6668553  63.9084913   5.3631673  55.0058553  60.6124913  15.0541673
  54.1508553  60.4904913  15.1801673  55.1588553  60.2174913  14.2911673
  54.9018553  60.5354913  14.9601673  49.5188553  61.2774913  13.6301673
  49.2638553  60.5584913  14.0521673  50.3398553  61.3934913  13.9001673
  49.6028553  61.1884913  13.7321673  47.4528553  62.4674913  16.8171673
  47.7758553  63.1534913  16.3851673  46.7488553  62.7904913  17.2191673
  47.3958553  62.6164913  16.8121673  47.2378553  65.9314913  10.6761673
  46.5438553  66.3334913  11.0191673  47.9148553  66.3644913  11.0151673
  47.2348553  66.0544913  10.7771673  40.3058553  59.4694913  13.0231673
  40.6808553  60.0884913  12.5361673  40.9798553  58.9954913  13.3081673
  40.4608553  59.4914913  12.9931673  38.0808553  57.9174913  12.2981673
  38.1578553  57.7484913  11.4451673  38.8268553  58.3234913  12.4951673
  38.2018553  57.9524913  12.2011673  53.6398553  60.5574913   2.7381673
  53.7428553  60.4994913   1.8741673  54.3808553  60.2254913   3.0561673
  53.7648553  60.5004913   2.6571673  40.6348553  55.3274913  14.7091673
  40.5538553  54.4834913  14.9151673  40.3208553  55.3714913  13.8961673
  40.5768553  55.2094913  14.6191673  52.7418553  60.7034913  12.0941673
  52.7398553  59.8404913  12.2181673  52.8088553  61.0274913  12.9011673
  52.7518553  60.6234913  12.2311673  37.4778553  63.1434913  12.5221673
  37.7978553  63.3624913  11.7411673  37.3778553  62.2784913  12.4671673
  37.5098553  63.0484913  12.3991673  48.6208553  55.5034913  15.8761673
  48.7128553  56.2154913  16.3701673  47.9838553  55.0584913  16.2731673
  48.5398553  55.5424913  16.0081673  47.6148553  55.6934913   6.7301673
  46.9148553  56.2114913   6.6741673  47.6528553  55.3134913   5.9461673
  47.5168553  55.7144913   6.6061673  51.2128553  56.2094913   9.5301673
  52.0678553  56.3084913   9.6751673  50.8438553  56.7624913  10.0951673
  51.2848553  56.3064913   9.6351673  42.2408553  62.4354913  13.9071673
  41.8448553  63.2094913  13.9821673  41.8348553  62.0624913  13.2311673
  42.1228553  62.4944913  13.8181673  51.5168553  61.4894913   8.0211673
  52.1828553  62.0304913   8.1811673  51.1718553  61.8004913   7.2821673
  51.5638553  61.6154913   7.9361673  42.6698553  55.4124913  11.3571673
  41.8058553  55.4964913  11.4371673  42.8898553  54.8984913  12.0261673
  42.5748553  55.3494913  11.4681673  54.6878553  54.0474913  12.6861673
  54.6358553  54.0034913  13.5561673  55.3748553  53.5444913  12.4961673
  54.7818553  53.9674913  12.7861673  46.7728553  56.1604913   9.7311673
  46.0358553  55.7064913   9.8441673  47.3438553  55.7584913  10.2541673
  46.7478553  56.0334913   9.8251673  49.5048553  67.0084913  11.5191673
  49.7108553  67.3094913  12.3111673  49.4438553  67.7304913  11.0341673
  49.5258553  67.1594913  11.5641673  44.2758553  60.4894913  14.9351673
  43.9538553  59.9134913  14.3651673  43.9168553  61.2444913  14.6891673
  44.1758553  60.5154913  14.8151673  54.3168553  65.6474913  10.9771673
  54.2848553  64.7854913  10.8421673  53.6238553  65.9494913  10.5431673
  54.2098553  65.5644913  10.8931673  39.8898553  55.4954913  12.0051673
  39.5468553  54.7284913  11.7711673  39.1948553  56.0194913  12.0691673
  39.7368553  55.4594913  11.9801673  48.9358553  54.3514913   8.9821673
  49.6058553  54.8954913   9.1091673  48.4328553  54.7754913   8.4091673
  48.9608553  54.4944913   8.9161673  48.2948553  60.1594913   6.4751673
  48.8458553  59.5524913   6.7751673  47.8698553  60.4224913   7.1901673
  48.3138553  60.1084913   6.6241673  38.5428553  58.8094913   5.9611673
  38.1748553  59.1114913   6.6921673  39.0768553  58.1804913   6.2451673
  38.5668553  58.7614913   6.1111673  38.2308553  67.2174913  13.4721673
  37.6568553  67.6334913  13.9811673  38.9638553  67.6824913  13.5671673
  38.2548553  67.3474913  13.5611673  50.2648553  61.9904913   3.0371673
  50.3328553  61.1404913   3.2181673  49.4418553  62.0764913   2.7591673
  50.1528553  61.8774913   3.0231673  53.5388553  63.3634913  16.1881673
  54.1728553  63.1934913  16.7621673  53.9558553  63.7664913  15.5361673
  53.6938553  63.3984913  16.1771673  49.4188553  67.2104913   1.7771673
  49.1678553  67.0824913   2.6031673  49.1018553  66.5154913   1.3561673
  49.3348553  67.0894913   1.8371673  54.1638553  57.9274913  16.9261673
  53.9678553  58.5714913  17.4811673  53.4418553  57.4374913  16.9181673
  54.0288553  57.9504913  17.0071673  54.0628553  58.8684913   9.8971673
  53.2298553  59.1184913   9.8251673  54.0068553  58.0284913  10.1261673
  53.9318553  58.7814913   9.9201673  43.3228553  55.8564913  15.0911673
  43.5568553  55.2804913  14.4781673  42.4808553  55.6754913  15.2321673
  43.2328553  55.7444913  15.0211673  50.9498553  63.4744913  17.5431673
  51.8208553  63.4384913  17.5071673  50.7308553  63.8944913  16.8111673
  51.0468553  63.5304913  17.4301673  47.7138553  35.5813833  80.4771313
  47.4688553  36.0693833  79.7971313  48.5768553  35.5083833  80.3771313
  47.8048553  35.6423833  80.3621313  47.5228553  42.4973833  85.1481313
  46.9988553  43.0933833  85.5111313  47.9198553  42.1293833  85.8321313
  47.5038553  42.5313833  85.3031313  37.3918553  46.6373833  80.6041313
  36.9508553  46.7553833  81.3471313  37.1088553  45.8623833  80.3191313
  37.2848553  46.5403833  80.6721313  53.6668553  49.9383833  78.1191313
  54.3678553  49.4193833  78.1151313  53.0798553  49.4933833  77.6501313
  53.6838553  49.7953833  78.0491313  37.1348553  40.4293833  77.1111313
  36.3568553  40.5913833  76.7511313  37.1738553  39.5583833  77.1331313
  37.0258553  40.3243833  77.0611313  40.2738553  45.6923833  75.7831313
  39.8818553  45.3213833  75.0971313  40.1938553  45.0943833  76.4121313
  40.2038553  45.5493833  75.7741313  50.1938553  43.5643833  81.8241313
  50.2738553  43.5683833  80.9551313  49.6098553  42.9323833  81.9731313
  50.1188553  43.4713833  81.7181313  39.9008553  47.3333833  79.6831313
  40.5088553  47.1633833  80.2861313  39.1498553  47.1933833  80.1041313
  39.8798553  47.2873833  79.8341313  44.1828553  36.6683833  79.6321313
  44.1128553  37.3453833  79.0861313  44.9238553  36.2803833  79.3831313
  44.2818553  36.7113833  79.5141313  38.7918553  50.4243833  75.7601313
  39.2588553  50.5083833  75.0281313  39.2468553  49.8463833  76.2291313
  38.9278553  50.3513833  75.7211313  37.3318553  49.3723833  86.8591313
  37.4608553  49.0923833  87.6751313  36.7218553  48.8313833  86.5501313
  37.2608553  49.2513833  86.9341313  38.7778553  43.8933833  81.0611313
  38.3158553  43.5013833  80.4341313  39.4778553  43.3803833  81.1531313
  38.8128553  43.7603833  80.9821313  43.2858553  39.5033833  86.4081313
  43.9638553  39.5213833  85.8591313  43.2408553  38.6673833  86.6531313
  43.3788553  39.3823833  86.3631313  43.8878553  50.0893833  89.1891313
  44.0258553  50.8493833  88.7821313  44.6788553  49.7243833  89.2161313
  44.0248553  50.1483833  89.1331313  40.7788553  41.9933833  81.0841313
  41.5958553  41.8063833  81.3271313  40.3018553  41.3793833  81.4801313
  40.8288553  41.8753833  81.1791313  44.9828553  47.9743833  83.6941313
  45.3308553  47.1753833  83.7241313  45.6478553  48.4783833  83.4391313
  45.1328553  47.9303833  83.6611313  45.0398553  47.4233833  79.9051313
  45.3708553  46.7793833  80.3911313  45.2798553  47.2123833  79.0941313
  45.1238553  47.2973833  79.8571313  41.3758553  37.0873833  80.3501313
  41.0798553  37.5883833  79.7001313  42.2428553  37.1653833  80.2931313
  41.4598553  37.1733833  80.2461313  51.5658553  34.5143833  90.3581313
  51.4078553  35.2833833  89.9761313  50.7938553  34.2943833  90.7021313
  51.4278553  34.5953833  90.3531313  44.3548553  36.2293833  82.5731313
  44.4278553  37.0893833  82.7021313  44.3168553  36.1543833  81.7051313
  44.3598553  36.3453833  82.4641313  49.0278553  39.1553833  74.8721313
  48.5778553  39.8363833  75.1791313  49.1418553  38.6513833  75.5751313
  48.9788553  39.1813833  75.0211313  37.2338553  41.6543833  84.0741313
  36.9778553  42.4853833  83.9991313  36.5698553  41.2713833  84.4911313
  37.0978553  41.7203833  84.1251313  37.1438553  51.3643833  81.9741313
  36.5518553  51.9223833  81.6611313  37.5698553  51.0953833  81.2621313
  37.1198553  51.4063833  81.8231313  42.9838553  49.2083833  79.4541313
  42.4048553  48.9333833  80.0461313  43.6078553  48.5993833  79.4791313
  42.9908553  49.0783833  79.5451313  49.1268553  51.4963833  76.9761313
  49.8538553  51.9683833  77.0781313  49.3558553  50.7023833  77.2561313
  49.2688553  51.4493833  77.0331313  47.2948553  51.8883833  78.9661313
  47.5088553  52.4153833  79.6281313  48.0618553  51.7143833  78.5871313
  47.4398553  51.9403833  79.0081313  40.2628553  36.4713833  84.5651313
  39.7418553  35.8433833  84.2571313  40.8538553  36.0343833  85.0361313
  40.2738553  36.3133833  84.5891313  38.6888553  50.0343833  79.9051313
  39.3448553  49.4593833  79.9201313  39.0778553  50.7833833  79.6841313
  38.8438553  50.0593833  79.8751313  54.4218553  39.1283833  81.1671313
  54.0758553  39.8063833  81.5931313  53.7858553  38.5303833  81.1831313
  54.2768553  39.1403833  81.2321313  49.7338553  51.8983833  87.2711313
  50.4778553  52.3543833  87.2611313  49.6128553  51.6843833  86.4341313
  49.8258553  51.9343833  87.1461313  39.5068553  48.5213833  83.4051313
  39.9298553  48.1653833  82.7311313  39.8308553  48.0993833  84.0971313
  39.6168553  48.4063833  83.4081313  42.7378553  51.3733833  82.7011313
  43.5818553  51.4773833  82.5061313  42.4408553  52.1913833  82.7691313
  42.8188553  51.5093833  82.6821313  46.5448553  40.7703833  80.7881313
  46.8318553  40.5383833  79.9981313  47.2768553  40.8493833  81.2571313
  46.6948553  40.7473833  80.7411313  51.3078553  53.0833833  77.3761313
  51.9728553  52.9353833  76.8311313  51.6678553  53.0003833  78.1661313
  51.4598553  53.0493833  77.4121313  41.7358553  52.5923833  88.4411313
  42.0278553  52.5253833  89.2611313  41.1098553  51.9873833  88.3961313
  41.6868553  52.4933833  88.5561313  54.0968553  37.4513833  86.5361313
  54.8538553  37.5233833  86.1081313  54.1598553  36.6783833  86.9351313
  54.2178553  37.3483833  86.5311313  36.6498553  38.7493833  90.4331313
  36.6458553  39.3363833  91.0791313  37.2438553  39.0613833  89.8761313
  36.7368553  38.8823833  90.4461313  46.1258553  49.2803833  75.7251313
  45.9448553  49.8253833  76.3821313  46.8918553  49.5703833  75.4241313
  46.2118553  49.4043833  75.7781313  49.6328553  37.1763833  76.7791313
  50.1728553  36.4943833  76.8551313  49.6948553  37.5743833  77.5531313
  49.7218553  37.1343833  76.9051313  37.5868553  38.3443833  79.3481313
  37.4728553  37.4803833  79.3791313  37.1118553  38.6383833  80.0181313
  37.4998553  38.2603833  79.4511313  39.7288553  50.7543833  87.5631313
  39.0308553  50.2463833  87.6891313  39.9888553  50.5493833  86.7551313
  39.6638553  50.6493833  87.4621313  46.8908553  39.5523833  78.0931313
  46.3828553  38.8903833  77.8391313  46.9428553  40.0563833  77.3831313
  46.8238553  39.5293833  77.9511313  47.4398553  52.2473833  88.4731313
  48.2078553  52.1673833  88.0671313  46.8568553  52.1263833  87.8351313
  47.4668553  52.2173833  88.3191313  46.8908553  36.4933833  77.9841313
  46.4358553  36.0913833  77.3581313  47.6638553  36.6483833  77.6091313
  46.9378553  36.4573833  77.8361313  53.7168553  52.8503833  81.3741313
  53.2618553  53.5673833  81.5751313  53.1028553  52.2793833  81.1321313
  53.5588553  52.8723833  81.3681313  45.4888553  38.8603833  82.5061313
  45.5628553  39.4283833  81.8481313  45.6098553  39.3523833  83.2161313
  45.5168553  39.0173833  82.5141313  50.7138553  48.6953833  80.9181313
  51.4148553  48.2133833  81.1071313  50.0538553  48.1263833  80.9631313
  50.7198553  48.5403833  80.9521313  41.0898553  49.6053833  90.1301313
  41.9308553  49.6683833  89.9081313  41.0528553  50.0023833  90.9061313
  41.2088553  49.6733833  90.2121313  40.0968553  34.6833833  80.8541313
  40.6328553  35.3713833  80.8441313  40.0998553  34.4093833  80.0261313
  40.1758553  34.7443833  80.7301313  43.0528553  45.1163833  84.8791313
  43.2248553  44.9063833  85.7081313  42.3978553  44.5823833  84.6631313
  42.9818553  45.0063833  84.9701313  49.2808553  39.0303833  88.3941313
  49.1858553  39.3493833  89.2001313  48.6878553  38.3913833  88.3561313
  49.1788553  38.9823833  88.5081313  43.8028553  45.0543833  87.4691313
  43.8558553  45.9013833  87.6711313  43.5178553  44.6843833  88.2061313
  43.7688553  45.1243833  87.6071313  49.9798553  45.7493833  86.5991313
  49.4658553  45.3373833  87.1701313  49.8538553  46.5933833  86.7801313
  49.8858553  45.8133833  86.7101313  50.5368553  34.9743833  81.2301313
  50.5858553  34.6563833  82.0411313  50.8598553  34.3303833  80.7371313
  50.5918553  34.8323833  81.2771313  53.0008553  39.2103833  89.5381313
  53.7728553  38.9853833  89.8751313  52.5258553  39.4273833  90.2381313
  53.0448553  39.2093833  89.6911313  40.5448553  38.4933833  82.5081313
  40.8168553  38.0633833  81.8001313  40.3688553  37.8573833  83.0791313
  40.5588553  38.3363833  82.4881313  53.2328553  46.1883833  76.7261313
  53.3518553  45.9013833  77.5411313  54.0398553  46.2093833  76.3961313
  53.3688553  46.1493833  76.7981313  40.3688553  45.9203833  82.0571313
  41.2198553  45.8403833  81.8841313  40.0118553  45.2383833  81.6451313
  40.4418553  45.8073833  81.9701313  39.1358553  52.6453833  83.2941313
  38.4628553  52.1473833  83.0491313  39.5388553  52.8303833  82.5431313
  39.0958553  52.5993833  83.1471313  38.6858553  39.5953833  85.5901313
  39.5288553  39.8153833  85.5471313  38.2968553  40.1683833  85.0591313
  38.7528553  39.7123833  85.5051313  51.1278553  42.7253833  76.3111313
  50.9078553  43.4563833  75.8891313  50.6798553  42.7763833  77.0581313
  51.0288553  42.8403833  76.3591313  42.7368553  45.9273833  80.2921313
  43.4498553  46.4223833  80.3821313  42.9588553  45.3603833  79.6661313
  42.8748553  45.9163833  80.2131313  55.3148553  37.5863833  75.7641313
  54.6528553  37.0183833  75.7871313  55.1218553  38.0983833  75.0841313
  55.1888553  37.5783833  75.6671313  36.8928553  47.5703833  83.6121313
  36.2258553  48.0583833  83.8881313  37.5728553  48.1153833  83.6411313
  36.8948553  47.7223833  83.6571313  55.6378553  41.9643833  88.3201313
  55.8528553  41.1643833  88.0441313  54.7878553  42.0243833  88.1311313
  55.5438553  41.8553833  88.2511313  36.9588553  44.2543833  78.7151313
  36.7738553  43.4153833  78.8671313  37.6178553  44.2183833  78.1451313
  37.0288553  44.1253833  78.6531313  53.3168553  37.1443833  78.0431313
  54.0628553  36.7373833  78.2421313  53.5798553  37.8593833  77.6181313
  53.4658553  37.1903833  78.0101313  47.2598553  49.6303833  82.6191313
  46.7368553  50.2643833  82.3261313  47.5698553  49.2663833  81.8901313
  47.2278553  49.6703833  82.4681313  37.1308553  48.4183833  78.2901313
  37.6828553  48.9873833  78.6541313  36.8988553  47.9033833  78.9551313
  37.1778553  48.4263833  78.4421313  41.3348553  47.4183833  85.3791313
  41.8018553  47.7073833  86.0571313  41.9068553  46.9403833  84.9251313
  41.4888553  47.3903833  85.4121313  49.7708553  39.4323833  83.1161313
  50.1148553  39.5843833  83.9031313  49.3178553  38.6943833  83.2291313
  49.7548553  39.3453833  83.2491313  36.9608553  46.8673833  75.9181313
  37.7168553  46.4353833  75.9761313  36.9758553  47.3993833  76.6091313
  37.0748553  46.8823833  76.0291313  37.9008553  45.0883833  83.9231313
  38.3318553  44.9593833  83.1761313  37.6958553  45.9363833  83.8971313
  37.9338553  45.1943833  83.8091313  44.2468553  38.6523833  77.5731313
  44.2448553  38.5353833  76.7081313  44.0658553  39.5003833  77.6651313
  44.2198553  38.7603833  77.4591313  53.3008553  51.0793833  89.0701313
  52.6298553  51.5933833  89.2881313  53.3638553  51.1793833  88.2061313
  53.2108553  51.1703833  88.9751313  41.9848553  48.6043833  82.2051313
  42.1108553  49.4473833  82.3921313  42.6528553  48.2053833  82.6011313
  42.1028553  48.6703833  82.2911313  40.5998553  41.4843833  77.2071313
  40.4718553  41.0363833  77.9451313  40.0178553  41.1423833  76.6551313
  40.4948553  41.3673833  77.2351313  40.7668553  43.3143833  83.8061313
  39.9858553  43.2553833  83.4231313  40.8388553  42.5623833  84.2431313
  40.6618553  43.1953833  83.8141313  41.1968553  43.0513833  87.2741313
  41.2218553  42.3763833  86.7231313  40.5508553  43.5473833  86.9621313
  41.1058553  43.0243833  87.1471313  51.0918553  40.7643833  85.6701313
  50.4298553  41.0923833  86.1331313  51.2788553  41.3983833  85.1011313
  51.0218553  40.9063833  85.6541313  45.2968553  51.8283833  86.6661313
  45.0198553  51.1873833  86.1431313  45.0888553  52.5543833  86.2281313
  45.2258553  51.8413833  86.5241313  47.7368553  36.6703833  89.0991313
  47.8858553  35.8453833  88.8561313  48.1158553  36.7253833  89.8831313
  47.8148553  36.5563833  89.1791313  49.2848553  38.7333833  79.1811313
  49.7748553  39.4503833  79.1041313  48.4948553  38.9943833  78.9181313
  49.2408553  38.8773833  79.1311313  50.5988553  46.6113833  91.0911313
  51.0828553  47.3293833  91.1891313  50.9928553  46.1843833  90.4401313
  50.7288553  46.6543833  91.0091313  45.8668553  40.2033833  84.9061313
  46.3468553  40.9023833  85.1141313  46.2398553  39.5563833  85.3571313
  45.9928553  40.2113833  85.0031313  48.0558553  43.3723833  77.1801313
  48.0478553  44.0943833  76.6901313  47.4168553  43.5073833  77.7571313
  47.9608553  43.4993833  77.1931313  53.0278553  47.2423833  81.1611313
  53.3838553  46.8923833  81.8761313  53.0198553  46.5813833  80.5911313
  53.0798553  47.0923833  81.1821313  49.0728553  50.3083833  85.0051313
  48.4698553  50.0123833  84.4481313  49.6178553  50.7603833  84.4961313
  49.0638553  50.3313833  84.8471313  49.0858553  47.1593833  84.4051313
  48.2888553  47.3833833  84.6791313  49.3438553  46.5653833  84.9901313
  49.0058553  47.1043833  84.5321313  42.9778553  51.9713833  78.8531313
  42.8308553  51.1953833  79.2241313  43.6668553  51.8243833  78.3381313
  43.0578553  51.8343833  78.8321313  42.6488553  35.7143833  76.8411313
  42.7458553  35.6073833  77.7021313  41.9408553  36.2203833  76.7761313
  42.5588553  35.7733833  76.9591313  45.2698553  51.4873833  77.2551313
  45.8918553  51.6503833  77.8451313  45.3058553  52.1783833  76.7231313
  45.3668553  51.6133833  77.2641313  52.3458553  45.1573833  89.2511313
  52.4008553  45.2823833  88.3891313  53.0988553  45.4773833  89.5531313
  52.4648553  45.2223833  89.1681313  39.7708553  44.0213833  78.0841313
  40.0948553  43.2423833  77.8621313  40.4168553  44.3893833  78.5391313
  39.9138553  43.9603833  78.1181313  48.0768553  44.9633833  88.8511313
  47.9218553  45.5733833  89.4551313  48.6108553  44.4053833  89.2571313
  48.1328553  44.9713833  89.0001313  36.7678553  35.6823833  79.0521313
  36.8968553  34.9743833  78.5601313  36.4008553  35.3643833  79.7771313
  36.7328553  35.5303833  79.0871313  46.4608553  43.3633833  79.5091313
  46.5198553  44.0133833  80.0881313  46.2718553  42.6673833  80.0001313
  46.4418553  43.3563833  79.6671313  51.6868553  47.6923833  85.3781313
  51.2078553  47.9903833  84.7121313  51.3308553  46.9163833  85.5561313
  51.5638553  47.6213833  85.3061313  40.9568553  37.8803833  76.0211313
  40.4458553  37.9333833  75.3151313  41.7408553  38.1203833  75.7251313
  40.9968553  37.9233833  75.8731313  45.6838553  45.4103833  83.9401313
  44.8368553  45.2163833  84.0211313  46.0078553  45.2453833  84.7331313
  45.6058553  45.3573833  84.0691313  42.4358553  52.1403833  74.8261313
  42.8748553  51.4433833  75.1141313  42.6428553  52.7643833  75.3991313
  42.5318553  52.1293833  74.9531313  39.5318553  45.1033833  86.2561313
  40.2538553  45.5913833  86.2191313  39.2618553  45.0733833  85.4271313
  39.5988553  45.1713833  86.1281313  42.7618553  40.2743833  82.9911313
  43.6078553  40.0843833  83.0891313  42.3918553  39.4973833  82.8531313
  42.8318553  40.1313833  82.9851313  55.3788553  51.8583833  77.3181313
  56.0728553  51.3913833  77.0701313  54.8398553  51.2603833  77.6551313
  55.4018553  51.7003833  77.3311313  37.5828553  41.6123833  79.6461313
  38.0718553  41.3203833  80.3071313  37.7118553  41.0193833  79.0191313
  37.6738553  41.4813833  79.6511313  52.6178553  44.6343833  86.4971313
  52.6108553  43.8583833  86.8951313  51.7768553  44.8683833  86.4901313
  52.4928553  44.5543833  86.5551313  42.1078553  43.0463833  75.1321313
  41.4978553  42.6413833  75.6061313  41.7218553  43.1643833  74.3591313
  41.9608553  43.0033833  75.0881313  38.9268553  46.1553833  90.5341313
  38.5058553  45.6373833  89.9731313  38.5748553  46.9413833  90.3911313
  38.8128553  46.1953833  90.4301313  53.8738553  44.7053833  83.9341313
  53.5878553  45.1063833  84.6541313  54.7338553  44.6433833  84.0611313
  53.9588553  44.7553833  84.0591313  43.5628553  41.5073833  77.8421313
  43.8348553  42.3333833  77.9091313  42.6998553  41.5823833  77.7461313
  43.4758553  41.6403833  77.8371313  37.0428553  37.4773833  84.3781313
  37.0868553  37.8213833  83.5771313  37.7978553  37.7143833  84.7451313
  37.1608553  37.5633833  84.3141313  55.0048553  50.3383833  84.4631313
  55.2948553  50.5953833  83.6821313  55.6998553  50.4343833  84.9821313
  55.1508553  50.3903833  84.4241313  51.6098553  48.9413833  76.4451313
  51.9438553  48.1353833  76.4801313  50.8548553  48.8693833  76.8751313
  51.5478553  48.8113833  76.5141313  52.0918553  40.7753833  82.1041313
  51.3468553  40.4523833  82.4221313  52.0938553  41.6013833  82.3841313
  51.9818553  40.8493833  82.1921313  54.5318553  46.7353833  89.8561313
  55.1598553  46.1863833  89.6001313  54.4708553  47.3003833  89.1941313
  54.6158553  46.7383833  89.7201313  48.9838553  46.8163833  75.8481313
  49.6678553  46.3023833  75.6791313  48.5668553  46.8623833  75.0831313
  49.0228553  46.7473833  75.7101313  43.6658553  47.9663833  87.1521313
  43.3678553  48.5583833  87.7191313  43.7208553  48.4083833  86.4031313
  43.6298553  48.1193833  87.1251313  41.6448553  46.9163833  90.5501313
  40.8388553  46.6263833  90.7171313  41.5558553  47.7843833  90.5561313
  41.5128553  47.0013833  90.5751313  51.0038553  37.1053833  89.5651313
  51.7478553  37.5573833  89.5021313  50.4378553  37.5753833  89.0961313
  51.0308553  37.2423833  89.4871313  46.1818553  44.3893833  86.6431313
  46.6578553  44.7633833  87.2711313  45.3588553  44.5233833  86.9021313
  46.1308553  44.4643833  86.7741313  42.8918553  39.9923833  89.3841313
  43.0528553  39.2483833  89.8111313  42.8468553  39.7433833  88.5491313
  42.9088553  39.8453833  89.3241313  45.4458553  51.7823833  81.8711313
  45.9918553  52.4613833  81.9251313  45.0958553  51.8643833  81.0761313
  45.4748553  51.8953833  81.7611313  52.2888553  35.0853833  87.2351313
  52.0088553  35.9103833  87.1911313  53.0048553  35.1383833  87.7311313
  52.3538553  35.2153833  87.3021313  44.6438553  35.8003833  89.2641313
  45.3488553  36.1203833  88.8621313  44.8848553  34.9933833  89.4911313
  44.7828553  35.7283833  89.2381313  43.6288553  50.0103833  85.2601313
  43.0048553  50.5923833  85.0781313  43.8768553  49.7243833  84.4741313
  43.5728553  50.0543833  85.1171313  53.7098553  41.3403833  76.0921313
  54.0878553  42.0173833  75.6921313  52.8678553  41.5643833  76.1231313
  53.6408553  41.4733833  76.0371313  45.2228553  44.7863833  75.1751313
  44.4178553  44.6093833  74.8901313  45.1898553  45.6373833  75.3671313
  45.0988553  44.8853833  75.1621313  41.1528553  40.8533833  85.3251313
  41.5928553  40.7503833  84.5791313  41.6978553  40.5403833  85.9301313
  41.2978553  40.7923833  85.3041313  48.8568553  41.4923833  87.2151313
  49.1588553  41.9123833  87.9181313  48.8928553  40.6523833  87.4471313
  48.9068553  41.4303833  87.3531313  51.4048553  40.9393833  79.4671313
  51.6118553  40.7383833  80.2911313  52.1608553  41.2073833  79.1251313
  51.5468553  40.9493833  79.5381313  44.6998553  35.8383833  85.3721313
  43.8738553  35.6893833  85.6091313  44.6598553  35.8733833  84.5011313
  44.5718553  35.8213833  85.2781313  52.4268553  37.0223833  80.9411313
  51.7128553  36.5513833  81.1121313  52.2648553  37.3633833  80.1551313
  52.2978553  37.0033833  80.8501313  52.8698553  44.9663833  79.3211313
  53.3458553  44.2373833  79.2731313  52.0488553  44.6803833  79.2451313
  52.8188553  44.8163833  79.3021313  46.3408553  46.8783833  90.1601313
  45.5458553  46.8143833  90.5111313  46.4118553  47.7253833  89.9651313
  46.2338553  46.9933833  90.1831313  42.1708553  53.0853833  85.4771313
  42.1818553  53.1443833  86.3471313  41.7458553  52.3383833  85.3271313
  42.1098553  52.9833833  85.5831313  49.0858553  46.1333833  81.6761313
  49.1618553  46.4743833  82.4751313  49.2548553  45.2863833  81.7971313
  49.1218553  46.0583833  81.8121313  46.6078553  45.4073833  81.2411313
  46.3098553  45.0923833  81.9981313  47.3028553  45.8803833  81.4761313
  46.6668553  45.4303833  81.3881313  46.8298553  49.5253833  89.2681313
  47.5168553  49.4113833  89.7931313  46.9638553  50.3163833  88.9241313
  46.9508553  49.6253833  89.2951313  55.0058553  42.1343833  91.0791313
  54.1508553  42.0123833  91.2051313  55.1588553  41.7393833  90.3161313
  54.9018553  42.0573833  90.9851313  49.5188553  42.7993833  89.6551313
  49.2638553  42.0803833  90.0771313  50.3398553  42.9153833  89.9251313
  49.6028553  42.7103833  89.7571313  38.9348553  52.5833833  90.9191313
  38.2808553  52.0143833  91.0171313  38.5598553  53.3563833  91.0701313
  38.7828553  52.6133833  90.9561313  50.5368553  52.3633833  83.7711313
  50.0858553  53.0063833  84.1501313  51.2448553  52.2843833  84.2761313
  50.5748553  52.4463833  83.9021313  47.2378553  47.4533833  86.7011313
  46.5438553  47.8553833  87.0441313  47.9148553  47.8863833  87.0401313
  47.2348553  47.5763833  86.8021313  40.3058553  40.9913833  89.0481313
  40.6808553  41.6103833  88.5611313  40.9798553  40.5173833  89.3331313
  40.4608553  41.0133833  89.0181313  38.0808553  39.4393833  88.3231313
  38.1578553  39.2703833  87.4701313  38.8268553  39.8453833  88.5201313
  38.2018553  39.4743833  88.2261313  53.6398553  42.0793833  78.7631313
  53.7428553  42.0213833  77.8991313  54.3808553  41.7473833  79.0811313
  53.7648553  42.0223833  78.6821313  40.6348553  36.8493833  90.7341313
  40.5538553  36.0053833  90.9401313  40.3208553  36.8933833  89.9211313
  40.5768553  36.7313833  90.6441313  47.5598553  49.0443833  79.8701313
  47.3548553  49.8773833  79.7111313  46.7848553  48.6623833  79.9921313
  47.4148553  49.1113833  79.8651313  52.7418553  42.2253833  88.1191313
  52.7398553  41.3623833  88.2431313  52.8088553  42.5493833  88.9261313
  52.7518553  42.1453833  88.2561313  37.4778553  44.6653833  88.5471313
  37.7978553  44.8843833  87.7661313  37.3778553  43.8003833  88.4921313
  37.5098553  44.5703833  88.4241313  38.9338553  40.6013833  75.1651313
  38.2618553  40.6153833  75.7211313  39.0288553  39.7533833  74.9811313
  38.8488553  40.4783833  75.2201313  47.6148553  37.2153833  82.7551313
  46.9148553  37.7333833  82.6991313  47.6528553  36.8353833  81.9711313
  47.5168553  37.2363833  82.6311313  42.9218553  49.3063833  76.2791313
  43.3628553  49.3863833  77.0271313  42.1168553  49.0903833  76.5371313
  42.8678553  49.2863833  76.4281313  51.2128553  37.7313833  85.5551313
  52.0678553  37.8303833  85.7001313  50.8438553  38.2843833  86.1201313
  51.2848553  37.8283833  85.6601313  42.2408553  43.9573833  89.9321313
  41.8448553  44.7313833  90.0071313  41.8348553  43.5843833  89.2561313
  42.1228553  44.0163833  89.8431313  51.5168553  43.0113833  84.0461313
  52.1828553  43.5523833  84.2061313  51.1718553  43.3223833  83.3071313
  51.5638553  43.1373833  83.9611313  51.8298553  51.0773833  79.8531313
  51.6558553  50.4233833  80.4031313  52.5428553  50.8063833  79.4301313
  51.9098553  50.9403833  79.8721313  40.2508553  48.3763833  76.8801313
  40.0068553  48.0693833  77.6601313  40.2178553  47.6733833  76.3641313
  40.2098553  48.2273833  76.9191313  43.0698553  46.6213833  75.6231313
  42.2518553  46.3533833  75.7631313  43.0418553  47.4733833  75.8081313
  42.9448553  46.7083833  75.6711313  42.6698553  36.9343833  87.3821313
  41.8058553  37.0183833  87.4621313  42.8898553  36.4203833  88.0511313
  42.5748553  36.8713833  87.4931313  54.6878553  35.5693833  88.7111313
  54.6358553  35.5253833  89.5811313  55.3748553  35.0663833  88.5211313
  54.7818553  35.4893833  88.8111313  46.7728553  37.6823833  85.7561313
  46.0358553  37.2283833  85.8691313  47.3438553  37.2803833  86.2791313
  46.7478553  37.5553833  85.8501313  49.5048553  48.5303833  87.5441313
  49.7108553  48.8313833  88.3361313  49.4438553  49.2523833  87.0591313
  49.5258553  48.6813833  87.5891313  44.2758553  42.0113833  90.9601313
  43.9538553  41.4353833  90.3901313  43.9168553  42.7663833  90.7141313
  44.1758553  42.0373833  90.8401313  45.0718553  35.2633833  75.5871313
  45.1498553  35.5103833  74.7541313  44.3288553  35.6403833  75.8451313
  44.9738553  35.3553833  75.5021313  54.3168553  47.1693833  87.0021313
  54.2848553  46.3073833  86.8671313  53.6238553  47.4713833  86.5681313
  54.2098553  47.0863833  86.9181313  52.4218553  50.4293833  85.7991313
  52.9488553  50.3463833  85.1081313  52.0308553  49.6513833  85.8531313
  52.4418553  50.3023833  85.7051313  39.8898553  37.0173833  88.0301313
  39.5468553  36.2503833  87.7961313  39.1948553  37.5413833  88.0941313
  39.7368553  36.9813833  88.0051313  48.9358553  35.8733833  85.0071313
  49.6058553  36.4173833  85.1341313  48.4328553  36.2973833  84.4341313
  48.9608553  36.0163833  84.9411313  48.2948553  41.6813833  82.5001313
  48.8458553  41.0743833  82.8001313  47.8698553  41.9443833  83.2151313
  48.3138553  41.6303833  82.6491313  38.5428553  40.3313833  81.9861313
  38.1748553  40.6333833  82.7171313  39.0768553  39.7023833  82.2701313
  38.5668553  40.2833833  82.1361313  38.2308553  48.7393833  89.4971313
  37.6568553  49.1553833  90.0061313  38.9638553  49.2043833  89.5921313
  38.2548553  48.8693833  89.5861313  50.2648553  43.5123833  79.0621313
  50.3328553  42.6623833  79.2431313  49.4418553  43.5983833  78.7841313
  50.1528553  43.3993833  79.0481313  40.0168553  52.0063833  78.2721313
  39.8718553  52.1623833  77.4261313  40.8828553  52.0853833  78.3501313
  40.1238553  52.0413833  78.1591313  44.1838553  44.4033833  78.0001313
  44.2838553  44.5423833  77.1451313  45.0018553  44.3433833  78.2961313
  44.3188553  44.4143833  77.9171313  53.3438553  52.4673833  75.4801313
  53.9808553  52.3333833  76.0611313  53.0028553  51.6733833  75.3631313
  53.3878553  52.3303833  75.5481313  49.4188553  48.7323833  77.8021313
  49.1678553  48.6043833  78.6281313  49.1018553  48.0373833  77.3811313
  49.3348553  48.6113833  77.8621313  54.0628553  40.3903833  85.9221313
  53.2298553  40.6403833  85.8501313  54.0068553  39.5503833  86.1511313
  53.9318553  40.3033833  85.9451313  43.3228553  37.3783833  91.1161313
  43.5568553  36.8023833  90.5031313  42.4808553  37.1973833  91.2571313
  43.2328553  37.2663833  91.0461313  40.7038553  50.8213833  84.7491313
  40.6248553  50.0113833  84.4331313  40.2598553  51.3083833  84.1771313
  40.6268553  50.7733833  84.6181313  46.3048553  46.9403833  77.2321313
  47.0218553  46.5933833  76.8761313  46.2708553  47.7403833  76.8841313
  46.4058553  47.0073833  77.1281313  38.2758553  53.0653833  88.3301313
  38.7688553  53.0093833  89.0481313  38.4638553  52.3323833  87.8951313
  38.3768553  52.9483833  88.3721313  47.7138553  35.5813833  61.4708903
  47.4688553  36.0693833  60.7908903  48.5768553  35.5083833  61.3708903
  47.8048553  35.6423833  61.3558903  47.5228553  42.4973833  66.1418903
  46.9988553  43.0933833  66.5048903  47.9198553  42.1293833  66.8258903
  47.5038553  42.5313833  66.2968903  37.3918553  46.6373833  61.5978903
  36.9508553  46.7553833  62.3408903  37.1088553  45.8623833  61.3128903
  37.2848553  46.5403833  61.6658903  53.6668553  49.9383833  59.1128903
  54.3678553  49.4193833  59.1088903  53.0798553  49.4933833  58.6438903
  53.6838553  49.7953833  59.0428903  40.2738553  45.6923833  56.7768903
  39.8818553  45.3213833  56.0908903  40.1938553  45.0943833  57.4058903
  40.2038553  45.5493833  56.7678903  50.1938553  43.5643833  62.8178903
  50.2738553  43.5683833  61.9488903  49.6098553  42.9323833  62.9668903
  50.1188553  43.4713833  62.7118903  39.9008553  47.3333833  60.6768903
  40.5088553  47.1633833  61.2798903  39.1498553  47.1933833  61.0978903
  39.8798553  47.2873833  60.8278903  38.7918553  50.4243833  56.7538903
  39.2588553  50.5083833  56.0218903  39.2468553  49.8463833  57.2228903
  38.9278553  50.3513833  56.7148903  37.3318553  49.3723833  67.8528903
  37.4608553  49.0923833  68.6688903  36.7218553  48.8313833  67.5438903
  37.2608553  49.2513833  67.9278903  43.9058553  46.8973833  72.9198903
  43.6698553  46.8943833  73.7598903  43.1578553  46.7493833  72.4958903
  43.7598553  46.8743833  72.9808903  38.7778553  43.8933833  62.0548903
  38.3158553  43.5013833  61.4278903  39.4778553  43.3803833  62.1468903
  38.8128553  43.7603833  61.9758903  43.2858553  39.5033833  67.4018903
  43.9638553  39.5213833  66.8528903  43.2408553  38.6673833  67.6468903
  43.3788553  39.3823833  67.3568903  43.8878553  50.0893833  70.1828903
  44.0258553  50.8493833  69.7758903  44.6788553  49.7243833  70.2098903
  44.0248553  50.1483833  70.1268903  40.7788553  41.9933833  62.0778903
  41.5958553  41.8063833  62.3208903  40.3018553  41.3793833  62.4738903
  40.8288553  41.8753833  62.1728903  44.9828553  47.9743833  64.6878903
  45.3308553  47.1753833  64.7178903  45.6478553  48.4783833  64.4328903
  45.1328553  47.9303833  64.6548903  45.0398553  47.4233833  60.8988903
  45.3708553  46.7793833  61.3848903  45.2798553  47.2123833  60.0878903
  45.1238553  47.2973833  60.8508903  47.0078553  41.5543833  72.2378903
  46.1598553  41.4553833  72.0598903  47.0368553  42.2993833  72.6918903
  46.8868553  41.6503833  72.2788903  51.5658553  34.5143833  71.3518903
  51.4078553  35.2833833  70.9698903  50.7938553  34.2943833  71.6958903
  51.4278553  34.5953833  71.3468903  49.0278553  39.1553833  55.8658903
  48.5778553  39.8363833  56.1728903  49.1418553  38.6513833  56.5688903
  48.9788553  39.1813833  56.0148903  37.2338553  41.6543833  65.0678903
  36.9778553  42.4853833  64.9928903  36.5698553  41.2713833  65.4848903
  37.0978553  41.7203833  65.1188903  37.1438553  51.3643833  62.9678903
  36.5518553  51.9223833  62.6548903  37.5698553  51.0953833  62.2558903
  37.1198553  51.4063833  62.8168903  42.9838553  49.2083833  60.4478903
  42.4048553  48.9333833  61.0398903  43.6078553  48.5993833  60.4728903
  42.9908553  49.0783833  60.5388903  49.1268553  51.4963833  57.9698903
  49.8538553  51.9683833  58.0718903  49.3558553  50.7023833  58.2498903
  49.2688553  51.4493833  58.0268903  47.2948553  51.8883833  59.9598903
  47.5088553  52.4153833  60.6218903  48.0618553  51.7143833  59.5808903
  47.4398553  51.9403833  60.0018903  40.2628553  36.4713833  65.5588903
  39.7418553  35.8433833  65.2508903  40.8538553  36.0343833  66.0298903
  40.2738553  36.3133833  65.5828903  43.5688553  38.6043833  74.8568903
  43.6858553  38.1503833  74.1208903  43.8568553  39.4023833  74.6538903
  43.6288553  38.6553833  74.7178903  38.6888553  50.0343833  60.8988903
  39.3448553  49.4593833  60.9138903  39.0778553  50.7833833  60.6778903
  38.8438553  50.0593833  60.8688903  54.4218553  39.1283833  62.1608903
  54.0758553  39.8063833  62.5868903  53.7858553  38.5303833  62.1768903
  54.2768553  39.1403833  62.2258903  49.7338553  51.8983833  68.2648903
  50.4778553  52.3543833  68.2548903  49.6128553  51.6843833  67.4278903
  49.8258553  51.9343833  68.1398903  39.3018553  38.2013833  73.8408903
  38.5238553  37.8113833  73.7688903  39.7928553  37.7893833  73.2498903
  39.2588553  38.0823833  73.7428903  39.5068553  48.5213833  64.3988903
  39.9298553  48.1653833  63.7248903  39.8308553  48.0993833  65.0908903
  39.6168553  48.4063833  64.4018903  42.7378553  51.3733833  63.6948903
  43.5818553  51.4773833  63.4998903  42.4408553  52.1913833  63.7628903
  42.8188553  51.5093833  63.6758903  45.9508553  35.8443833  73.0088903
  46.1288553  35.0353833  72.7338903  45.8078553  36.2853833  72.2698903
  45.9558553  35.7903833  72.8588903  46.5448553  40.7703833  61.7818903
  46.8318553  40.5383833  60.9918903  47.2768553  40.8493833  62.2508903
  46.6948553  40.7473833  61.7348903  47.2668553  41.1093833  56.9028903
  47.5478553  41.8973833  57.1518903  46.4908553  41.2743833  56.5398903
  47.1938553  41.2503833  56.8858903  51.3078553  53.0833833  58.3698903
  51.9728553  52.9353833  57.8248903  51.6678553  53.0003833  59.1598903
  51.4598553  53.0493833  58.4058903  41.7358553  52.5923833  69.4348903
  42.0278553  52.5253833  70.2548903  41.1098553  51.9873833  69.3898903
  41.6868553  52.4933833  69.5498903  54.0968553  37.4513833  67.5298903
  54.8538553  37.5233833  67.1018903  54.1598553  36.6783833  67.9288903
  54.2178553  37.3483833  67.5248903  36.6498553  38.7493833  71.4268903
  36.6458553  39.3363833  72.0728903  37.2438553  39.0613833  70.8698903
  36.7368553  38.8823833  71.4398903  48.9878553  49.0833833  71.9688903
  48.9538553  49.4653833  72.7528903  49.8418553  49.0413833  71.7978903
  49.1088553  49.1333833  72.0598903  46.1258553  49.2803833  56.7188903
  45.9448553  49.8253833  57.3758903  46.8918553  49.5703833  56.4178903
  46.2118553  49.4043833  56.7718903  49.6328553  37.1763833  57.7728903
  50.1728553  36.4943833  57.8488903  49.6948553  37.5743833  58.5468903
  49.7218553  37.1343833  57.8988903  39.7288553  50.7543833  68.5568903
  39.0308553  50.2463833  68.6828903  39.9888553  50.5493833  67.7488903
  39.6638553  50.6493833  68.4558903  46.8908553  39.5523833  59.0868903
  46.3828553  38.8903833  58.8328903  46.9428553  40.0563833  58.3768903
  46.8238553  39.5293833  58.9448903  47.4398553  52.2473833  69.4668903
  48.2078553  52.1673833  69.0608903  46.8568553  52.1263833  68.8288903
  47.4668553  52.2173833  69.3128903  46.8908553  36.4933833  58.9778903
  46.4358553  36.0913833  58.3518903  47.6638553  36.6483833  58.6028903
  46.9378553  36.4573833  58.8298903  53.7168553  52.8503833  62.3678903
  53.2618553  53.5673833  62.5688903  53.1028553  52.2793833  62.1258903
  53.5588553  52.8723833  62.3618903  45.4888553  38.8603833  63.4998903
  45.5628553  39.4283833  62.8418903  45.6098553  39.3523833  64.2098903
  45.5168553  39.0173833  63.5078903  50.7138553  48.6953833  61.9118903
  51.4148553  48.2133833  62.1008903  50.0538553  48.1263833  61.9568903
  50.7198553  48.5403833  61.9458903  41.0898553  49.6053833  71.1238903
  41.9308553  49.6683833  70.9018903  41.0528553  50.0023833  71.8998903
  41.2088553  49.6733833  71.2058903  43.0528553  45.1163833  65.8728903
  43.2248553  44.9063833  66.7018903  42.3978553  44.5823833  65.6568903
  42.9818553  45.0063833  65.9638903  49.2808553  39.0303833  69.3878903
  49.1858553  39.3493833  70.1938903  48.6878553  38.3913833  69.3498903
  49.1788553  38.9823833  69.5018903  43.8028553  45.0543833  68.4628903
  43.8558553  45.9013833  68.6648903  43.5178553  44.6843833  69.1998903
  43.7688553  45.1243833  68.6008903  49.9798553  45.7493833  67.5928903
  49.4658553  45.3373833  68.1638903  49.8538553  46.5933833  67.7738903
  49.8858553  45.8133833  67.7038903  50.5368553  34.9743833  62.2238903
  50.5858553  34.6563833  63.0348903  50.8598553  34.3303833  61.7308903
  50.5918553  34.8323833  62.2708903  36.6238553  49.4253833  74.6738903
  37.3798553  49.7743833  74.9318903  36.8008553  48.5723833  74.6168903
  36.7618553  49.3503833  74.7038903  53.0008553  39.2103833  70.5318903
  53.7728553  38.9853833  70.8688903  52.5258553  39.4273833  71.2318903
  53.0448553  39.2093833  70.6848903  40.5448553  38.4933833  63.5018903
  40.8168553  38.0633833  62.7938903  40.3688553  37.8573833  64.0728903
  40.5588553  38.3363833  63.4818903  53.2328553  46.1883833  57.7198903
  53.3518553  45.9013833  58.5348903  54.0398553  46.2093833  57.3898903
  53.3688553  46.1493833  57.7918903  40.3688553  45.9203833  63.0508903
  41.2198553  45.8403833  62.8778903  40.0118553  45.2383833  62.6388903
  40.4418553  45.8073833  62.9638903  39.1358553  52.6453833  64.2878903
  38.4628553  52.1473833  64.0428903  39.5388553  52.8303833  63.5368903
  39.0958553  52.5993833  64.1408903  38.6858553  39.5953833  66.5838903
  39.5288553  39.8153833  66.5408903  38.2968553  40.1683833  66.0528903
  38.7528553  39.7123833  66.4988903  55.4668553  50.6973833  71.9738903
  54.7848553  51.0073833  71.5268903  55.0978553  50.2393833  72.6188903
  55.3108553  50.6753833  72.0028903  51.1278553  42.7253833  57.3048903
  50.9078553  43.4563833  56.8828903  50.6798553  42.7763833  58.0518903
  51.0288553  42.8403833  57.3528903  42.7368553  45.9273833  61.2858903
  43.4498553  46.4223833  61.3758903  42.9588553  45.3603833  60.6598903
  42.8748553  45.9163833  61.2068903  55.3148553  37.5863833  56.7578903
  54.6528553  37.0183833  56.7808903  55.1218553  38.0983833  56.0778903
  55.1888553  37.5783833  56.6608903  36.8928553  47.5703833  64.6058903
  36.2258553  48.0583833  64.8818903  37.5728553  48.1153833  64.6348903
  36.8948553  47.7223833  64.6508903  44.5398553  41.2803833  74.7018903
  44.0558553  41.8573833  75.1438903  44.5118553  41.5753833  73.8808903
  44.4638553  41.4093833  74.6458903  55.6378553  41.9643833  69.3138903
  55.8528553  41.1643833  69.0378903  54.7878553  42.0243833  69.1248903
  55.5438553  41.8553833  69.2448903  36.9588553  44.2543833  59.7088903
  36.7738553  43.4153833  59.8608903  37.6178553  44.2183833  59.1388903
  37.0288553  44.1253833  59.6468903  53.3168553  37.1443833  59.0368903
  54.0628553  36.7373833  59.2358903  53.5798553  37.8593833  58.6118903
  53.4658553  37.1903833  59.0038903  47.2598553  49.6303833  63.6128903
  46.7368553  50.2643833  63.3198903  47.5698553  49.2663833  62.8838903
  47.2278553  49.6703833  63.4618903  37.1308553  48.4183833  59.2838903
  37.6828553  48.9873833  59.6478903  36.8988553  47.9033833  59.9488903
  37.1778553  48.4263833  59.4358903  41.3348553  47.4183833  66.3728903
  41.8018553  47.7073833  67.0508903  41.9068553  46.9403833  65.9188903
  41.4888553  47.3903833  66.4058903  49.7708553  39.4323833  64.1098903
  50.1148553  39.5843833  64.8968903  49.3178553  38.6943833  64.2228903
  49.7548553  39.3453833  64.2428903  36.9608553  46.8673833  56.9118903
  37.7168553  46.4353833  56.9698903  36.9758553  47.3993833  57.6028903
  37.0748553  46.8823833  57.0228903  37.9008553  45.0883833  64.9168903
  38.3318553  44.9593833  64.1698903  37.6958553  45.9363833  64.8908903
  37.9338553  45.1943833  64.8028903  44.2468553  38.6523833  58.5668903
  44.2448553  38.5353833  57.7018903  44.0658553  39.5003833  58.6588903
  44.2198553  38.7603833  58.4528903  53.3008553  51.0793833  70.0638903
  52.6298553  51.5933833  70.2818903  53.3638553  51.1793833  69.1998903
  53.2108553  51.1703833  69.9688903  41.9848553  48.6043833  63.1988903
  42.1108553  49.4473833  63.3858903  42.6528553  48.2053833  63.5948903
  42.1028553  48.6703833  63.2848903  40.1148553  42.0873833  73.0608903
  39.5788553  41.5813833  73.5288903  40.1348553  41.6973833  72.2808903
  40.0378553  41.9543833  73.0148903  40.5998553  41.4843833  58.2008903
  40.4718553  41.0363833  58.9388903  40.0178553  41.1423833  57.6488903
  40.4948553  41.3673833  58.2288903  40.7668553  43.3143833  64.7998903
  39.9858553  43.2553833  64.4168903  40.8388553  42.5623833  65.2368903
  40.6618553  43.1953833  64.8078903  41.1968553  43.0513833  68.2678903
  41.2218553  42.3763833  67.7168903  40.5508553  43.5473833  67.9558903
  41.1058553  43.0243833  68.1408903  51.0918553  40.7643833  66.6638903
  50.4298553  41.0923833  67.1268903  51.2788553  41.3983833  66.0948903
  51.0218553  40.9063833  66.6478903  45.2968553  51.8283833  67.6598903
  45.0198553  51.1873833  67.1368903  45.0888553  52.5543833  67.2218903
  45.2258553  51.8413833  67.5178903  47.7368553  36.6703833  70.0928903
  47.8858553  35.8453833  69.8498903  48.1158553  36.7253833  70.8768903
  47.8148553  36.5563833  70.1728903  49.2848553  38.7333833  60.1748903
  49.7748553  39.4503833  60.0978903  48.4948553  38.9943833  59.9118903
  49.2408553  38.8773833  60.1248903  38.9958553  44.4063833  73.8268903
  38.9588553  44.9073833  73.1128903  39.3268553  43.6543833  73.5318903
  39.0388553  44.3683833  73.6778903  50.5988553  46.6113833  72.0848903
  51.0828553  47.3293833  72.1828903  50.9928553  46.1843833  71.4338903
  50.7288553  46.6543833  72.0028903  44.8948553  49.4563833  73.2618903
  45.2488553  49.2783833  74.0388903  44.4588553  48.7273833  73.0628903
  44.8828553  49.3223833  73.3478903  45.8668553  40.2033833  65.8998903
  46.3468553  40.9023833  66.1078903  46.2398553  39.5563833  66.3508903
  45.9928553  40.2113833  65.9968903  48.0558553  43.3723833  58.1738903
  48.0478553  44.0943833  57.6838903  47.4168553  43.5073833  58.7508903
  47.9608553  43.4993833  58.1868903  53.0278553  47.2423833  62.1548903
  53.3838553  46.8923833  62.8698903  53.0198553  46.5813833  61.5848903
  53.0798553  47.0923833  62.1758903  49.0728553  50.3083833  65.9988903
  48.4698553  50.0123833  65.4418903  49.6178553  50.7603833  65.4898903
  49.0638553  50.3313833  65.8408903  49.0858553  47.1593833  65.3988903
  48.2888553  47.3833833  65.6728903  49.3438553  46.5653833  65.9838903
  49.0058553  47.1043833  65.5258903  42.9778553  51.9713833  59.8468903
  42.8308553  51.1953833  60.2178903  43.6668553  51.8243833  59.3318903
  43.0578553  51.8343833  59.8258903  45.2698553  51.4873833  58.2488903
  45.8918553  51.6503833  58.8388903  45.3058553  52.1783833  57.7168903
  45.3668553  51.6133833  58.2578903  52.3458553  45.1573833  70.2448903
  52.4008553  45.2823833  69.3828903  53.0988553  45.4773833  70.5468903
  52.4648553  45.2223833  70.1618903  48.5368553  50.5063833  74.5218903
  48.7008553  50.7893833  75.3308903  48.7998553  51.1673833  74.0168903
  48.5998553  50.6463833  74.5668903  53.3778553  35.4553833  73.2318903
  52.7408553  35.0553833  72.7898903  53.4038553  35.0243833  73.9898903
  53.2878553  35.3333833  73.2778903  39.7708553  44.0213833  59.0778903
  40.0948553  43.2423833  58.8558903  40.4168553  44.3893833  59.5328903
  39.9138553  43.9603833  59.1118903  48.0768553  44.9633833  69.8448903
  47.9218553  45.5733833  70.4488903  48.6108553  44.4053833  70.2508903
  48.1328553  44.9713833  69.9938903  46.4608553  43.3633833  60.5028903
  46.5198553  44.0133833  61.0818903  46.2718553  42.6673833  60.9938903
  46.4418553  43.3563833  60.6608903  51.6868553  47.6923833  66.3718903
  51.2078553  47.9903833  65.7058903  51.3308553  46.9163833  66.5498903
  51.5638553  47.6213833  66.2998903  45.6838553  45.4103833  64.9338903
  44.8368553  45.2163833  65.0148903  46.0078553  45.2453833  65.7268903
  45.6058553  45.3573833  65.0628903  42.4358553  52.1403833  55.8198903
  42.8748553  51.4433833  56.1078903  42.6428553  52.7643833  56.3928903
  42.5318553  52.1293833  55.9468903  39.5318553  45.1033833  67.2498903
  40.2538553  45.5913833  67.2128903  39.2618553  45.0733833  66.4208903
  39.5988553  45.1713833  67.1218903  42.7618553  40.2743833  63.9848903
  43.6078553  40.0843833  64.0828903  42.3918553  39.4973833  63.8468903
  42.8318553  40.1313833  63.9788903  55.3788553  51.8583833  58.3118903
  56.0728553  51.3913833  58.0638903  54.8398553  51.2603833  58.6488903
  55.4018553  51.7003833  58.3248903  37.5828553  41.6123833  60.6398903
  38.0718553  41.3203833  61.3008903  37.7118553  41.0193833  60.0128903
  37.6738553  41.4813833  60.6448903  52.6178553  44.6343833  67.4908903
  52.6108553  43.8583833  67.8888903  51.7768553  44.8683833  67.4838903
  52.4928553  44.5543833  67.5488903  42.1078553  43.0463833  56.1258903
  41.4978553  42.6413833  56.5998903  41.7218553  43.1643833  55.3528903
  41.9608553  43.0033833  56.0818903  38.9268553  46.1553833  71.5278903
  38.5058553  45.6373833  70.9668903  38.5748553  46.9413833  71.3848903
  38.8128553  46.1953833  71.4238903  53.8738553  44.7053833  64.9278903
  53.5878553  45.1063833  65.6478903  54.7338553  44.6433833  65.0548903
  53.9588553  44.7553833  65.0528903  43.5628553  41.5073833  58.8358903
  43.8348553  42.3333833  58.9028903  42.6998553  41.5823833  58.7398903
  43.4758553  41.6403833  58.8308903  51.5358553  38.6293833  73.4678903
  51.0108553  39.0883833  73.9918903  51.1748553  37.8343833  73.4618903
  51.4048553  38.5793833  73.5438903  37.0428553  37.4773833  65.3718903
  37.0868553  37.8213833  64.5708903  37.7978553  37.7143833  65.7388903
  37.1608553  37.5633833  65.3078903  55.0048553  50.3383833  65.4568903
  55.2948553  50.5953833  64.6758903  55.6998553  50.4343833  65.9758903
  55.1508553  50.3903833  65.4178903  50.0278553  42.1983833  73.5438903
  50.1008553  42.3023833  74.4068903  49.3938553  42.7563833  73.3228903
  49.9448553  42.2963833  73.6388903  52.2958553  42.5173833  71.9088903
  52.6148553  43.3033833  72.1118903  51.9258553  42.2473833  72.6518903
  52.2888553  42.5933833  72.0488903  51.6098553  48.9413833  57.4388903
  51.9438553  48.1353833  57.4738903  50.8548553  48.8693833  57.8688903
  51.5478553  48.8113833  57.5078903  52.0918553  40.7753833  63.0978903
  51.3468553  40.4523833  63.4158903  52.0938553  41.6013833  63.3778903
  51.9818553  40.8493833  63.1858903  54.9938553  43.0593833  74.6438903
  54.9418553  42.7183833  73.8428903  55.7308553  43.5263833  74.6218903
  55.0948553  43.0783833  74.5218903  54.5318553  46.7353833  70.8498903
  55.1598553  46.1863833  70.5938903  54.4708553  47.3003833  70.1878903
  54.6158553  46.7383833  70.7138903  48.9838553  46.8163833  56.8418903
  49.6678553  46.3023833  56.6728903  48.5668553  46.8623833  56.0768903
  49.0228553  46.7473833  56.7038903  43.6658553  47.9663833  68.1458903
  43.3678553  48.5583833  68.7128903  43.7208553  48.4083833  67.3968903
  43.6298553  48.1193833  68.1188903  41.6448553  46.9163833  71.5438903
  40.8388553  46.6263833  71.7108903  41.5558553  47.7843833  71.5498903
  41.5128553  47.0013833  71.5688903  51.0038553  37.1053833  70.5588903
  51.7478553  37.5573833  70.4958903  50.4378553  37.5753833  70.0898903
  51.0308553  37.2423833  70.4808903  46.1818553  44.3893833  67.6368903
  46.6578553  44.7633833  68.2648903  45.3588553  44.5233833  67.8958903
  46.1308553  44.4643833  67.7678903  42.8918553  39.9923833  70.3778903
  43.0528553  39.2483833  70.8048903  42.8468553  39.7433833  69.5428903
  42.9088553  39.8453833  70.3178903  45.4458553  51.7823833  62.8648903
  45.9918553  52.4613833  62.9188903  45.0958553  51.8643833  62.0698903
  45.4748553  51.8953833  62.7548903  52.2888553  35.0853833  68.2288903
  52.0088553  35.9103833  68.1848903  53.0048553  35.1383833  68.7248903
  52.3538553  35.2153833  68.2958903  44.6438553  35.8003833  70.2578903
  45.3488553  36.1203833  69.8558903  44.8848553  34.9933833  70.4848903
  44.7828553  35.7283833  70.2318903  43.6288553  50.0103833  66.2538903
  43.0048553  50.5923833  66.0718903  43.8768553  49.7243833  65.4678903
  43.5728553  50.0543833  66.1108903  47.9378553  46.6443833  73.2428903
  48.6948553  46.9303833  72.9168903  47.3908553  46.6963833  72.5648903
  47.9688553  46.6943833  73.0938903  51.8468553  49.1943833  71.7468903
  52.1928553  49.4643833  72.5008903  52.1408553  49.7763833  71.1668903
  51.9418553  49.3203833  71.7728903  53.7098553  41.3403833  57.0858903
  54.0878553  42.0173833  56.6858903  52.8678553  41.5643833  57.1168903
  53.6408553  41.4733833  57.0308903  45.2228553  44.7863833  56.1688903
  44.4178553  44.6093833  55.8838903  45.1898553  45.6373833  56.3608903
  45.0988553  44.8853833  56.1558903  41.1528553  40.8533833  66.3188903
  41.5928553  40.7503833  65.5728903  41.6978553  40.5403833  66.9238903
  41.2978553  40.7923833  66.2978903  49.1688553  39.9553833  71.9108903
  48.5208553  40.4253833  72.2588903  49.7338553  39.8663833  72.5698903
  49.1568553  40.0113833  72.0598903  48.8568553  41.4923833  68.2088903
  49.1588553  41.9123833  68.9118903  48.8928553  40.6523833  68.4408903
  48.9068553  41.4303833  68.3468903  46.2818553  51.6593833  72.1338903
  46.7598553  51.0593833  71.7178903  45.9308553  51.2163833  72.7988903
  46.3008553  51.5053833  72.1708903  52.4268553  37.0223833  61.9348903
  51.7128553  36.5513833  62.1058903  52.2648553  37.3633833  61.1488903
  52.2978553  37.0033833  61.8438903  52.8698553  44.9663833  60.3148903
  53.3458553  44.2373833  60.2668903  52.0488553  44.6803833  60.2388903
  52.8188553  44.8163833  60.2958903  46.3408553  46.8783833  71.1538903
  45.5458553  46.8143833  71.5048903  46.4118553  47.7253833  70.9588903
  46.2338553  46.9933833  71.1768903  37.2648553  36.2363833  72.4008903
  37.1248553  37.0313833  72.0698903  36.4788553  35.9933833  72.6898903
  37.1278553  36.3183833  72.3948903  42.1708553  53.0853833  66.4708903
  42.1818553  53.1443833  67.3408903  41.7458553  52.3383833  66.3208903
  42.1098553  52.9833833  66.5768903  49.0858553  46.1333833  62.6698903
  49.1618553  46.4743833  63.4688903  49.2548553  45.2863833  62.7908903
  49.1218553  46.0583833  62.8058903  46.6078553  45.4073833  62.2348903
  46.3098553  45.0923833  62.9918903  47.3028553  45.8803833  62.4698903
  46.6668553  45.4303833  62.3818903  46.8298553  49.5253833  70.2618903
  47.5168553  49.4113833  70.7868903  46.9638553  50.3163833  69.9178903
  46.9508553  49.6253833  70.2888903  55.0058553  42.1343833  72.0728903
  54.1508553  42.0123833  72.1988903  55.1588553  41.7393833  71.3098903
  54.9018553  42.0573833  71.9788903  49.5188553  42.7993833  70.6488903
  49.2638553  42.0803833  71.0708903  50.3398553  42.9153833  70.9188903
  49.6028553  42.7103833  70.7508903  38.9348553  52.5833833  71.9128903
  38.2808553  52.0143833  72.0108903  38.5598553  53.3563833  72.0638903
  38.7828553  52.6133833  71.9498903  47.4528553  43.9893833  73.8358903
  47.7758553  44.6753833  73.4038903  46.7488553  44.3123833  74.2378903
  47.3958553  44.1383833  73.8308903  50.5368553  52.3633833  64.7648903
  50.0858553  53.0063833  65.1438903  51.2448553  52.2843833  65.2698903
  50.5748553  52.4463833  64.8958903  47.2378553  47.4533833  67.6948903
  46.5438553  47.8553833  68.0378903  47.9148553  47.8863833  68.0338903
  47.2348553  47.5763833  67.7958903  52.6148553  50.0463833  74.2748903
  53.3908553  49.6563833  74.3578903  52.1458553  49.7103833  74.9298903
  52.6598553  49.9393833  74.3838903  40.3058553  40.9913833  70.0418903
  40.6808553  41.6103833  69.5548903  40.9798553  40.5173833  70.3268903
  40.4608553  41.0133833  70.0118903  38.0808553  39.4393833  69.3168903
  38.1578553  39.2703833  68.4638903  38.8268553  39.8453833  69.5138903
  38.2018553  39.4743833  69.2198903  53.6398553  42.0793833  59.7568903
  53.7428553  42.0213833  58.8928903  54.3808553  41.7473833  60.0748903
  53.7648553  42.0223833  59.6758903  40.6348553  36.8493833  71.7278903
  40.5538553  36.0053833  71.9338903  40.3208553  36.8933833  70.9148903
  40.5768553  36.7313833  71.6378903  47.5598553  49.0443833  60.8638903
  47.3548553  49.8773833  60.7048903  46.7848553  48.6623833  60.9858903
  47.4148553  49.1113833  60.8588903  37.4778553  44.6653833  69.5408903
  37.7978553  44.8843833  68.7598903  37.3778553  43.8003833  69.4858903
  37.5098553  44.5703833  69.4178903  38.9338553  40.6013833  56.1588903
  38.2618553  40.6153833  56.7148903  39.0288553  39.7533833  55.9748903
  38.8488553  40.4783833  56.2138903  48.6208553  37.0253833  72.8948903
  48.7128553  37.7373833  73.3888903  47.9838553  36.5803833  73.2918903
  48.5398553  37.0643833  73.0268903  47.6148553  37.2153833  63.7488903
  46.9148553  37.7333833  63.6928903  47.6528553  36.8353833  62.9648903
  47.5168553  37.2363833  63.6248903  42.9218553  49.3063833  57.2728903
  43.3628553  49.3863833  58.0208903  42.1168553  49.0903833  57.5308903
  42.8678553  49.2863833  57.4218903  51.2128553  37.7313833  66.5488903
  52.0678553  37.8303833  66.6938903  50.8438553  38.2843833  67.1138903
  51.2848553  37.8283833  66.6538903  42.2408553  43.9573833  70.9258903
  41.8448553  44.7313833  71.0008903  41.8348553  43.5843833  70.2498903
  42.1228553  44.0163833  70.8368903  51.5168553  43.0113833  65.0398903
  52.1828553  43.5523833  65.1998903  51.1718553  43.3223833  64.3008903
  51.5638553  43.1373833  64.9548903  51.8298553  51.0773833  60.8468903
  51.6558553  50.4233833  61.3968903  52.5428553  50.8063833  60.4238903
  51.9098553  50.9403833  60.8658903  40.2508553  48.3763833  57.8738903
  40.0068553  48.0693833  58.6538903  40.2178553  47.6733833  57.3578903
  40.2098553  48.2273833  57.9128903  43.0698553  46.6213833  56.6168903
  42.2518553  46.3533833  56.7568903  43.0418553  47.4733833  56.8018903
  42.9448553  46.7083833  56.6648903  42.6698553  36.9343833  68.3758903
  41.8058553  37.0183833  68.4558903  42.8898553  36.4203833  69.0448903
  42.5748553  36.8713833  68.4868903  54.6878553  35.5693833  69.7048903
  54.6358553  35.5253833  70.5748903  55.3748553  35.0663833  69.5148903
  54.7818553  35.4893833  69.8048903  46.7728553  37.6823833  66.7498903
  46.0358553  37.2283833  66.8628903  47.3438553  37.2803833  67.2728903
  46.7478553  37.5553833  66.8438903  49.5048553  48.5303833  68.5378903
  49.7108553  48.8313833  69.3298903  49.4438553  49.2523833  68.0528903
  49.5258553  48.6813833  68.5828903  49.0388553  52.7443833  72.7838903
  48.2858553  52.7263833  72.3428903  49.2068553  53.5963833  72.8678903
  48.9528553  52.8673833  72.7308903  44.2758553  42.0113833  71.9538903
  43.9538553  41.4353833  71.3838903  43.9168553  42.7663833  71.7078903
  44.1758553  42.0373833  71.8338903  54.3168553  47.1693833  67.9958903
  54.2848553  46.3073833  67.8608903  53.6238553  47.4713833  67.5618903
  54.2098553  47.0863833  67.9118903  42.7108553  52.3673833  72.2018903
  42.7518553  52.4933833  73.0648903  43.3618553  51.8073833  72.0458903
  42.8128553  52.3033833  72.3068903  52.4218553  50.4293833  66.7928903
  52.9488553  50.3463833  66.1018903  52.0308553  49.6513833  66.8468903
  52.4418553  50.3023833  66.6988903  39.8898553  37.0173833  69.0238903
  39.5468553  36.2503833  68.7898903  39.1948553  37.5413833  69.0878903
  39.7368553  36.9813833  68.9988903  48.9358553  35.8733833  66.0008903
  49.6058553  36.4173833  66.1278903  48.4328553  36.2973833  65.4278903
  48.9608553  36.0163833  65.9348903  40.3038553  50.7503833  73.5618903
  40.8988553  51.1813833  74.0338903  39.9398553  51.3743833  73.0728903
  40.3378553  50.9063833  73.5588903  48.2948553  41.6813833  63.4938903
  48.8458553  41.0743833  63.7938903  47.8698553  41.9443833  64.2088903
  48.3138553  41.6303833  63.6428903  38.5428553  40.3313833  62.9798903
  38.1748553  40.6333833  63.7108903  39.0768553  39.7023833  63.2638903
  38.5668553  40.2833833  63.1298903  38.2308553  48.7393833  70.4908903
  37.6568553  49.1553833  70.9998903  38.9638553  49.2043833  70.5858903
  38.2548553  48.8693833  70.5798903  50.2648553  43.5123833  60.0558903
  50.3328553  42.6623833  60.2368903  49.4418553  43.5983833  59.7778903
  50.1528553  43.3993833  60.0418903  40.0168553  52.0063833  59.2658903
  39.8718553  52.1623833  58.4198903  40.8828553  52.0853833  59.3438903
  40.1238553  52.0413833  59.1528903  44.1838553  44.4033833  58.9938903
  44.2838553  44.5423833  58.1388903  45.0018553  44.3433833  59.2898903
  44.3188553  44.4143833  58.9108903  53.3438553  52.4673833  56.4738903
  53.9808553  52.3333833  57.0548903  53.0028553  51.6733833  56.3568903
  53.3878553  52.3303833  56.5418903  53.5388553  44.8853833  73.2068903
  54.1728553  44.7153833  73.7808903  53.9558553  45.2883833  72.5548903
  53.6938553  44.9203833  73.1958903  49.4188553  48.7323833  58.7958903
  49.1678553  48.6043833  59.6218903  49.1018553  48.0373833  58.3748903
  49.3348553  48.6113833  58.8558903  54.1638553  39.4493833  73.9448903
  53.9678553  40.0933833  74.4998903  53.4418553  38.9593833  73.9368903
  54.0288553  39.4723833  74.0258903  54.0628553  40.3903833  66.9158903
  53.2298553  40.6403833  66.8438903  54.0068553  39.5503833  67.1448903
  53.9318553  40.3033833  66.9388903  43.3228553  37.3783833  72.1098903
  43.5568553  36.8023833  71.4968903  42.4808553  37.1973833  72.2508903
  43.2328553  37.2663833  72.0398903  50.9498553  44.9963833  74.5618903
  51.8208553  44.9603833  74.5258903  50.7308553  45.4163833  73.8298903
  51.0468553  45.0523833  74.4488903  40.7038553  50.8213833  65.7428903
  40.6248553  50.0113833  65.4268903  40.2598553  51.3083833  65.1708903
  40.6268553  50.7733833  65.6118903  46.3048553  46.9403833  58.2258903
  47.0218553  46.5933833  57.8698903  46.2708553  47.7403833  57.8778903
  46.4058553  47.0073833  58.1218903  38.2758553  53.0653833  69.3238903
  38.7688553  53.0093833  70.0418903  38.4638553  52.3323833  68.8888903
  38.3768553  52.9483833  69.3658903  47.7138553  35.5813833  42.4646493
  47.4688553  36.0693833  41.7846493  48.5768553  35.5083833  42.3646493
  47.8048553  35.6423833  42.3496493  47.5228553  42.4973833  47.1356493
  46.9988553  43.0933833  47.4986493  47.9198553  42.1293833  47.8196493
  47.5038553  42.5313833  47.2906493  37.3918553  46.6373833  42.5916493
  36.9508553  46.7553833  43.3346493  37.1088553  45.8623833  42.3066493
  37.2848553  46.5403833  42.6596493  53.6668553  49.9383833  40.1066493
  54.3678553  49.4193833  40.1026493  53.0798553  49.4933833  39.6376493
  53.6838553  49.7953833  40.0366493  37.1348553  40.4293833  39.0986493
  36.3568553  40.5913833  38.7386493  37.1738553  39.5583833  39.1206493
  37.0258553  40.3243833  39.0486493  40.2738553  45.6923833  37.7706493
  39.8818553  45.3213833  37.0846493  40.1938553  45.0943833  38.3996493
  40.2038553  45.5493833  37.7616493  50.1938553  43.5643833  43.8116493
  50.2738553  43.5683833  42.9426493  49.6098553  42.9323833  43.9606493
  50.1188553  43.4713833  43.7056493  39.9008553  47.3333833  41.6706493
  40.5088553  47.1633833  42.2736493  39.1498553  47.1933833  42.0916493
  39.8798553  47.2873833  41.8216493  44.1828553  36.6683833  41.6196493
  44.1128553  37.3453833  41.0736493  44.9238553  36.2803833  41.3706493
  44.2818553  36.7113833  41.5016493  38.7918553  50.4243833  37.7476493
  39.2588553  50.5083833  37.0156493  39.2468553  49.8463833  38.2166493
  38.9278553  50.3513833  37.7086493  37.3318553  49.3723833  48.8466493
  37.4608553  49.0923833  49.6626493  36.7218553  48.8313833  48.5376493
  37.2608553  49.2513833  48.9216493  43.9058553  46.8973833  53.9136493
  43.6698553  46.8943833  54.7536493  43.1578553  46.7493833  53.4896493
  43.7598553  46.8743833  53.9746493  38.7778553  43.8933833  43.0486493
  38.3158553  43.5013833  42.4216493  39.4778553  43.3803833  43.1406493
  38.8128553  43.7603833  42.9696493  43.2858553  39.5033833  48.3956493
  43.9638553  39.5213833  47.8466493  43.2408553  38.6673833  48.6406493
  43.3788553  39.3823833  48.3506493  43.8878553  50.0893833  51.1766493
  44.0258553  50.8493833  50.7696493  44.6788553  49.7243833  51.2036493
  44.0248553  50.1483833  51.1206493  40.7788553  41.9933833  43.0716493
  41.5958553  41.8063833  43.3146493  40.3018553  41.3793833  43.4676493
  40.8288553  41.8753833  43.1666493  44.9828553  47.9743833  45.6816493
  45.3308553  47.1753833  45.7116493  45.6478553  48.4783833  45.4266493
  45.1328553  47.9303833  45.6486493  45.0398553  47.4233833  41.8926493
  45.3708553  46.7793833  42.3786493  45.2798553  47.2123833  41.0816493
  45.1238553  47.2973833  41.8446493  47.0078553  41.5543833  53.2316493
  46.1598553  41.4553833  53.0536493  47.0368553  42.2993833  53.6856493
  46.8868553  41.6503833  53.2726493  41.3758553  37.0873833  42.3376493
  41.0798553  37.5883833  41.6876493  42.2428553  37.1653833  42.2806493
  41.4598553  37.1733833  42.2336493  51.5658553  34.5143833  52.3456493
  51.4078553  35.2833833  51.9636493  50.7938553  34.2943833  52.6896493
  51.4278553  34.5953833  52.3406493  44.3548553  36.2293833  44.5606493
  44.4278553  37.0893833  44.6896493  44.3168553  36.1543833  43.6926493
  44.3598553  36.3453833  44.4516493  49.0278553  39.1553833  36.8596493
  48.5778553  39.8363833  37.1666493  49.1418553  38.6513833  37.5626493
  48.9788553  39.1813833  37.0086493  37.2338553  41.6543833  46.0616493
  36.9778553  42.4853833  45.9866493  36.5698553  41.2713833  46.4786493
  37.0978553  41.7203833  46.1126493  37.1438553  51.3643833  43.9616493
  36.5518553  51.9223833  43.6486493  37.5698553  51.0953833  43.2496493
  37.1198553  51.4063833  43.8106493  42.9838553  49.2083833  41.4416493
  42.4048553  48.9333833  42.0336493  43.6078553  48.5993833  41.4666493
  42.9908553  49.0783833  41.5326493  49.1268553  51.4963833  38.9636493
  49.8538553  51.9683833  39.0656493  49.3558553  50.7023833  39.2436493
  49.2688553  51.4493833  39.0206493  47.2948553  51.8883833  40.9536493
  47.5088553  52.4153833  41.6156493  48.0618553  51.7143833  40.5746493
  47.4398553  51.9403833  40.9956493  40.2628553  36.4713833  46.5526493
  39.7418553  35.8433833  46.2446493  40.8538553  36.0343833  47.0236493
  40.2738553  36.3133833  46.5766493  38.6888553  50.0343833  41.8926493
  39.3448553  49.4593833  41.9076493  39.0778553  50.7833833  41.6716493
  38.8438553  50.0593833  41.8626493  54.4218553  39.1283833  43.1546493
  54.0758553  39.8063833  43.5806493  53.7858553  38.5303833  43.1706493
  54.2768553  39.1403833  43.2196493  49.7338553  51.8983833  49.2586493
  50.4778553  52.3543833  49.2486493  49.6128553  51.6843833  48.4216493
  49.8258553  51.9343833  49.1336493  39.5068553  48.5213833  45.3926493
  39.9298553  48.1653833  44.7186493  39.8308553  48.0993833  46.0846493
  39.6168553  48.4063833  45.3956493  42.7378553  51.3733833  44.6886493
  43.5818553  51.4773833  44.4936493  42.4408553  52.1913833  44.7566493
  42.8188553  51.5093833  44.6696493  46.5448553  40.7703833  42.7756493
  46.8318553  40.5383833  41.9856493  47.2768553  40.8493833  43.2446493
  46.6948553  40.7473833  42.7286493  47.2668553  41.1093833  37.8966493
  47.5478553  41.8973833  38.1456493  46.4908553  41.2743833  37.5336493
  47.1938553  41.2503833  37.8796493  51.3078553  53.0833833  39.3636493
  51.9728553  52.9353833  38.8186493  51.6678553  53.0003833  40.1536493
  51.4598553  53.0493833  39.3996493  41.7358553  52.5923833  50.4286493
  42.0278553  52.5253833  51.2486493  41.1098553  51.9873833  50.3836493
  41.6868553  52.4933833  50.5436493  54.0968553  37.4513833  48.5236493
  54.8538553  37.5233833  48.0956493  54.1598553  36.6783833  48.9226493
  54.2178553  37.3483833  48.5186493  48.9878553  49.0833833  52.9626493
  48.9538553  49.4653833  53.7466493  49.8418553  49.0413833  52.7916493
  49.1088553  49.1333833  53.0536493  46.1258553  49.2803833  37.7126493
  45.9448553  49.8253833  38.3696493  46.8918553  49.5703833  37.4116493
  46.2118553  49.4043833  37.7656493  49.6328553  37.1763833  38.7666493
  50.1728553  36.4943833  38.8426493  49.6948553  37.5743833  39.5406493
  49.7218553  37.1343833  38.8926493  37.5868553  38.3443833  41.3356493
  37.4728553  37.4803833  41.3666493  37.1118553  38.6383833  42.0056493
  37.4998553  38.2603833  41.4386493  39.7288553  50.7543833  49.5506493
  39.0308553  50.2463833  49.6766493  39.9888553  50.5493833  48.7426493
  39.6638553  50.6493833  49.4496493  46.8908553  39.5523833  40.0806493
  46.3828553  38.8903833  39.8266493  46.9428553  40.0563833  39.3706493
  46.8238553  39.5293833  39.9386493  47.4398553  52.2473833  50.4606493
  48.2078553  52.1673833  50.0546493  46.8568553  52.1263833  49.8226493
  47.4668553  52.2173833  50.3066493  46.8908553  36.4933833  39.9716493
  46.4358553  36.0913833  39.3456493  47.6638553  36.6483833  39.5966493
  46.9378553  36.4573833  39.8236493  53.7168553  52.8503833  43.3616493
  53.2618553  53.5673833  43.5626493  53.1028553  52.2793833  43.1196493
  53.5588553  52.8723833  43.3556493  45.4888553  38.8603833  44.4936493
  45.5628553  39.4283833  43.8356493  45.6098553  39.3523833  45.2036493
  45.5168553  39.0173833  44.5016493  50.7138553  48.6953833  42.9056493
  51.4148553  48.2133833  43.0946493  50.0538553  48.1263833  42.9506493
  50.7198553  48.5403833  42.9396493  40.0968553  34.6833833  42.8416493
  40.6328553  35.3713833  42.8316493  40.0998553  34.4093833  42.0136493
  40.1758553  34.7443833  42.7176493  43.0528553  45.1163833  46.8666493
  43.2248553  44.9063833  47.6956493  42.3978553  44.5823833  46.6506493
  42.9818553  45.0063833  46.9576493  49.2808553  39.0303833  50.3816493
  49.1858553  39.3493833  51.1876493  48.6878553  38.3913833  50.3436493
  49.1788553  38.9823833  50.4956493  43.8028553  45.0543833  49.4566493
  43.8558553  45.9013833  49.6586493  43.5178553  44.6843833  50.1936493
  43.7688553  45.1243833  49.5946493  49.9798553  45.7493833  48.5866493
  49.4658553  45.3373833  49.1576493  49.8538553  46.5933833  48.7676493
  49.8858553  45.8133833  48.6976493  50.5368553  34.9743833  43.2176493
  50.5858553  34.6563833  44.0286493  50.8598553  34.3303833  42.7246493
  50.5918553  34.8323833  43.2646493  36.6238553  49.4253833  55.6676493
  37.3798553  49.7743833  55.9256493  36.8008553  48.5723833  55.6106493
  36.7618553  49.3503833  55.6976493  53.0008553  39.2103833  51.5256493
  53.7728553  38.9853833  51.8626493  52.5258553  39.4273833  52.2256493
  53.0448553  39.2093833  51.6786493  40.5448553  38.4933833  44.4956493
  40.8168553  38.0633833  43.7876493  40.3688553  37.8573833  45.0666493
  40.5588553  38.3363833  44.4756493  53.2328553  46.1883833  38.7136493
  53.3518553  45.9013833  39.5286493  54.0398553  46.2093833  38.3836493
  53.3688553  46.1493833  38.7856493  40.3688553  45.9203833  44.0446493
  41.2198553  45.8403833  43.8716493  40.0118553  45.2383833  43.6326493
  40.4418553  45.8073833  43.9576493  39.1358553  52.6453833  45.2816493
  38.4628553  52.1473833  45.0366493  39.5388553  52.8303833  44.5306493
  39.0958553  52.5993833  45.1346493  38.6858553  39.5953833  47.5776493
  39.5288553  39.8153833  47.5346493  38.2968553  40.1683833  47.0466493
  38.7528553  39.7123833  47.4926493  55.4668553  50.6973833  52.9676493
  54.7848553  51.0073833  52.5206493  55.0978553  50.2393833  53.6126493
  55.3108553  50.6753833  52.9966493  51.1278553  42.7253833  38.2986493
  50.9078553  43.4563833  37.8766493  50.6798553  42.7763833  39.0456493
  51.0288553  42.8403833  38.3466493  42.7368553  45.9273833  42.2796493
  43.4498553  46.4223833  42.3696493  42.9588553  45.3603833  41.6536493
  42.8748553  45.9163833  42.2006493  55.3148553  37.5863833  37.7516493
  54.6528553  37.0183833  37.7746493  55.1218553  38.0983833  37.0716493
  55.1888553  37.5783833  37.6546493  36.8928553  47.5703833  45.5996493
  36.2258553  48.0583833  45.8756493  37.5728553  48.1153833  45.6286493
  36.8948553  47.7223833  45.6446493  44.5398553  41.2803833  55.6956493
  44.0558553  41.8573833  56.1376493  44.5118553  41.5753833  54.8746493
  44.4638553  41.4093833  55.6396493  55.6378553  41.9643833  50.3076493
  55.8528553  41.1643833  50.0316493  54.7878553  42.0243833  50.1186493
  55.5438553  41.8553833  50.2386493  36.9588553  44.2543833  40.7026493
  36.7738553  43.4153833  40.8546493  37.6178553  44.2183833  40.1326493
  37.0288553  44.1253833  40.6406493  53.3168553  37.1443833  40.0306493
  54.0628553  36.7373833  40.2296493  53.5798553  37.8593833  39.6056493
  53.4658553  37.1903833  39.9976493  47.2598553  49.6303833  44.6066493
  46.7368553  50.2643833  44.3136493  47.5698553  49.2663833  43.8776493
  47.2278553  49.6703833  44.4556493  37.1308553  48.4183833  40.2776493
  37.6828553  48.9873833  40.6416493  36.8988553  47.9033833  40.9426493
  37.1778553  48.4263833  40.4296493  41.3348553  47.4183833  47.3666493
  41.8018553  47.7073833  48.0446493  41.9068553  46.9403833  46.9126493
  41.4888553  47.3903833  47.3996493  49.7708553  39.4323833  45.1036493
  50.1148553  39.5843833  45.8906493  49.3178553  38.6943833  45.2166493
  49.7548553  39.3453833  45.2366493  36.9608553  46.8673833  37.9056493
  37.7168553  46.4353833  37.9636493  36.9758553  47.3993833  38.5966493
  37.0748553  46.8823833  38.0166493  37.9008553  45.0883833  45.9106493
  38.3318553  44.9593833  45.1636493  37.6958553  45.9363833  45.8846493
  37.9338553  45.1943833  45.7966493  44.2468553  38.6523833  39.5606493
  44.2448553  38.5353833  38.6956493  44.0658553  39.5003833  39.6526493
  44.2198553  38.7603833  39.4466493  53.3008553  51.0793833  51.0576493
  52.6298553  51.5933833  51.2756493  53.3638553  51.1793833  50.1936493
  53.2108553  51.1703833  50.9626493  41.9848553  48.6043833  44.1926493
  42.1108553  49.4473833  44.3796493  42.6528553  48.2053833  44.5886493
  42.1028553  48.6703833  44.2786493  40.1148553  42.0873833  54.0546493
  39.5788553  41.5813833  54.5226493  40.1348553  41.6973833  53.2746493
  40.0378553  41.9543833  54.0086493  40.5998553  41.4843833  39.1946493
  40.4718553  41.0363833  39.9326493  40.0178553  41.1423833  38.6426493
  40.4948553  41.3673833  39.2226493  40.7668553  43.3143833  45.7936493
  39.9858553  43.2553833  45.4106493  40.8388553  42.5623833  46.2306493
  40.6618553  43.1953833  45.8016493  41.1968553  43.0513833  49.2616493
  41.2218553  42.3763833  48.7106493  40.5508553  43.5473833  48.9496493
  41.1058553  43.0243833  49.1346493  51.0918553  40.7643833  47.6576493
  50.4298553  41.0923833  48.1206493  51.2788553  41.3983833  47.0886493
  51.0218553  40.9063833  47.6416493  45.2968553  51.8283833  48.6536493
  45.0198553  51.1873833  48.1306493  45.0888553  52.5543833  48.2156493
  45.2258553  51.8413833  48.5116493  47.7368553  36.6703833  51.0866493
  47.8858553  35.8453833  50.8436493  48.1158553  36.7253833  51.8706493
  47.8148553  36.5563833  51.1666493  49.2848553  38.7333833  41.1686493
  49.7748553  39.4503833  41.0916493  48.4948553  38.9943833  40.9056493
  49.2408553  38.8773833  41.1186493  38.9958553  44.4063833  54.8206493
  38.9588553  44.9073833  54.1066493  39.3268553  43.6543833  54.5256493
  39.0388553  44.3683833  54.6716493  50.5988553  46.6113833  53.0786493
  51.0828553  47.3293833  53.1766493  50.9928553  46.1843833  52.4276493
  50.7288553  46.6543833  52.9966493  44.8948553  49.4563833  54.2556493
  45.2488553  49.2783833  55.0326493  44.4588553  48.7273833  54.0566493
  44.8828553  49.3223833  54.3416493  45.8668553  40.2033833  46.8936493
  46.3468553  40.9023833  47.1016493  46.2398553  39.5563833  47.3446493
  45.9928553  40.2113833  46.9906493  48.0558553  43.3723833  39.1676493
  48.0478553  44.0943833  38.6776493  47.4168553  43.5073833  39.7446493
  47.9608553  43.4993833  39.1806493  53.0278553  47.2423833  43.1486493
  53.3838553  46.8923833  43.8636493  53.0198553  46.5813833  42.5786493
  53.0798553  47.0923833  43.1696493  49.0728553  50.3083833  46.9926493
  48.4698553  50.0123833  46.4356493  49.6178553  50.7603833  46.4836493
  49.0638553  50.3313833  46.8346493  49.0858553  47.1593833  46.3926493
  48.2888553  47.3833833  46.6666493  49.3438553  46.5653833  46.9776493
  49.0058553  47.1043833  46.5196493  42.9778553  51.9713833  40.8406493
  42.8308553  51.1953833  41.2116493  43.6668553  51.8243833  40.3256493
  43.0578553  51.8343833  40.8196493  42.6488553  35.7143833  38.8286493
  42.7458553  35.6073833  39.6896493  41.9408553  36.2203833  38.7636493
  42.5588553  35.7733833  38.9466493  45.2698553  51.4873833  39.2426493
  45.8918553  51.6503833  39.8326493  45.3058553  52.1783833  38.7106493
  45.3668553  51.6133833  39.2516493  52.3458553  45.1573833  51.2386493
  52.4008553  45.2823833  50.3766493  53.0988553  45.4773833  51.5406493
  52.4648553  45.2223833  51.1556493  48.5368553  50.5063833  55.5156493
  48.7008553  50.7893833  56.3246493  48.7998553  51.1673833  55.0106493
  48.5998553  50.6463833  55.5606493  53.3778553  35.4553833  54.2256493
  52.7408553  35.0553833  53.7836493  53.4038553  35.0243833  54.9836493
  53.2878553  35.3333833  54.2716493  39.7708553  44.0213833  40.0716493
  40.0948553  43.2423833  39.8496493  40.4168553  44.3893833  40.5266493
  39.9138553  43.9603833  40.1056493  48.0768553  44.9633833  50.8386493
  47.9218553  45.5733833  51.4426493  48.6108553  44.4053833  51.2446493
  48.1328553  44.9713833  50.9876493  46.4608553  43.3633833  41.4966493
  46.5198553  44.0133833  42.0756493  46.2718553  42.6673833  41.9876493
  46.4418553  43.3563833  41.6546493  51.6868553  47.6923833  47.3656493
  51.2078553  47.9903833  46.6996493  51.3308553  46.9163833  47.5436493
  51.5638553  47.6213833  47.2936493  40.9568553  37.8803833  38.0086493
  40.4458553  37.9333833  37.3026493  41.7408553  38.1203833  37.7126493
  40.9968553  37.9233833  37.8606493  45.6838553  45.4103833  45.9276493
  44.8368553  45.2163833  46.0086493  46.0078553  45.2453833  46.7206493
  45.6058553  45.3573833  46.0566493  42.4358553  52.1403833  36.8136493
  42.8748553  51.4433833  37.1016493  42.6428553  52.7643833  37.3866493
  42.5318553  52.1293833  36.9406493  39.5318553  45.1033833  48.2436493
  40.2538553  45.5913833  48.2066493  39.2618553  45.0733833  47.4146493
  39.5988553  45.1713833  48.1156493  42.7618553  40.2743833  44.9786493
  43.6078553  40.0843833  45.0766493  42.3918553  39.4973833  44.8406493
  42.8318553  40.1313833  44.9726493  55.3788553  51.8583833  39.3056493
  56.0728553  51.3913833  39.0576493  54.8398553  51.2603833  39.6426493
  55.4018553  51.7003833  39.3186493  37.5828553  41.6123833  41.6336493
  38.0718553  41.3203833  42.2946493  37.7118553  41.0193833  41.0066493
  37.6738553  41.4813833  41.6386493  52.6178553  44.6343833  48.4846493
  52.6108553  43.8583833  48.8826493  51.7768553  44.8683833  48.4776493
  52.4928553  44.5543833  48.5426493  42.1078553  43.0463833  37.1196493
  41.4978553  42.6413833  37.5936493  41.7218553  43.1643833  36.3466493
  41.9608553  43.0033833  37.0756493  38.9268553  46.1553833  52.5216493
  38.5058553  45.6373833  51.9606493  38.5748553  46.9413833  52.3786493
  38.8128553  46.1953833  52.4176493  53.8738553  44.7053833  45.9216493
  53.5878553  45.1063833  46.6416493  54.7338553  44.6433833  46.0486493
  53.9588553  44.7553833  46.0466493  43.5628553  41.5073833  39.8296493
  43.8348553  42.3333833  39.8966493  42.6998553  41.5823833  39.7336493
  43.4758553  41.6403833  39.8246493  51.5358553  38.6293833  54.4616493
  51.0108553  39.0883833  54.9856493  51.1748553  37.8343833  54.4556493
  51.4048553  38.5793833  54.5376493  37.0428553  37.4773833  46.3656493
  37.0868553  37.8213833  45.5646493  37.7978553  37.7143833  46.7326493
  37.1608553  37.5633833  46.3016493  55.0048553  50.3383833  46.4506493
  55.2948553  50.5953833  45.6696493  55.6998553  50.4343833  46.9696493
  55.1508553  50.3903833  46.4116493  50.0278553  42.1983833  54.5376493
  50.1008553  42.3023833  55.4006493  49.3938553  42.7563833  54.3166493
  49.9448553  42.2963833  54.6326493  51.6098553  48.9413833  38.4326493
  51.9438553  48.1353833  38.4676493  50.8548553  48.8693833  38.8626493
  51.5478553  48.8113833  38.5016493  52.0918553  40.7753833  44.0916493
  51.3468553  40.4523833  44.4096493  52.0938553  41.6013833  44.3716493
  51.9818553  40.8493833  44.1796493  54.9938553  43.0593833  55.6376493
  54.9418553  42.7183833  54.8366493  55.7308553  43.5263833  55.6156493
  55.0948553  43.0783833  55.5156493  54.5318553  46.7353833  51.8436493
  55.1598553  46.1863833  51.5876493  54.4708553  47.3003833  51.1816493
  54.6158553  46.7383833  51.7076493  48.9838553  46.8163833  37.8356493
  49.6678553  46.3023833  37.6666493  48.5668553  46.8623833  37.0706493
  49.0228553  46.7473833  37.6976493  43.6658553  47.9663833  49.1396493
  43.3678553  48.5583833  49.7066493  43.7208553  48.4083833  48.3906493
  43.6298553  48.1193833  49.1126493  41.6448553  46.9163833  52.5376493
  40.8388553  46.6263833  52.7046493  41.5558553  47.7843833  52.5436493
  41.5128553  47.0013833  52.5626493  51.0038553  37.1053833  51.5526493
  51.7478553  37.5573833  51.4896493  50.4378553  37.5753833  51.0836493
  51.0308553  37.2423833  51.4746493  46.1818553  44.3893833  48.6306493
  46.6578553  44.7633833  49.2586493  45.3588553  44.5233833  48.8896493
  46.1308553  44.4643833  48.7616493  42.8918553  39.9923833  51.3716493
  43.0528553  39.2483833  51.7986493  42.8468553  39.7433833  50.5366493
  42.9088553  39.8453833  51.3116493  45.4458553  51.7823833  43.8586493
  45.9918553  52.4613833  43.9126493  45.0958553  51.8643833  43.0636493
  45.4748553  51.8953833  43.7486493  52.2888553  35.0853833  49.2226493
  52.0088553  35.9103833  49.1786493  53.0048553  35.1383833  49.7186493
  52.3538553  35.2153833  49.2896493  44.6438553  35.8003833  51.2516493
  45.3488553  36.1203833  50.8496493  44.8848553  34.9933833  51.4786493
  44.7828553  35.7283833  51.2256493  43.6288553  50.0103833  47.2476493
  43.0048553  50.5923833  47.0656493  43.8768553  49.7243833  46.4616493
  43.5728553  50.0543833  47.1046493  47.9378553  46.6443833  54.2366493
  48.6948553  46.9303833  53.9106493  47.3908553  46.6963833  53.5586493
  47.9688553  46.6943833  54.0876493  51.8468553  49.1943833  52.7406493
  52.1928553  49.4643833  53.4946493  52.1408553  49.7763833  52.1606493
  51.9418553  49.3203833  52.7666493  53.7098553  41.3403833  38.0796493
  54.0878553  42.0173833  37.6796493  52.8678553  41.5643833  38.1106493
  53.6408553  41.4733833  38.0246493  45.2228553  44.7863833  37.1626493
  44.4178553  44.6093833  36.8776493  45.1898553  45.6373833  37.3546493
  45.0988553  44.8853833  37.1496493  41.1528553  40.8533833  47.3126493
  41.5928553  40.7503833  46.5666493  41.6978553  40.5403833  47.9176493
  41.2978553  40.7923833  47.2916493  49.1688553  39.9553833  52.9046493
  48.5208553  40.4253833  53.2526493  49.7338553  39.8663833  53.5636493
  49.1568553  40.0113833  53.0536493  48.8568553  41.4923833  49.2026493
  49.1588553  41.9123833  49.9056493  48.8928553  40.6523833  49.4346493
  48.9068553  41.4303833  49.3406493  46.2818553  51.6593833  53.1276493
  46.7598553  51.0593833  52.7116493  45.9308553  51.2163833  53.7926493
  46.3008553  51.5053833  53.1646493  51.4048553  40.9393833  41.4546493
  51.6118553  40.7383833  42.2786493  52.1608553  41.2073833  41.1126493
  51.5468553  40.9493833  41.5256493  44.6998553  35.8383833  47.3596493
  43.8738553  35.6893833  47.5966493  44.6598553  35.8733833  46.4886493
  44.5718553  35.8213833  47.2656493  52.4268553  37.0223833  42.9286493
  51.7128553  36.5513833  43.0996493  52.2648553  37.3633833  42.1426493
  52.2978553  37.0033833  42.8376493  52.8698553  44.9663833  41.3086493
  53.3458553  44.2373833  41.2606493  52.0488553  44.6803833  41.2326493
  52.8188553  44.8163833  41.2896493  46.3408553  46.8783833  52.1476493
  45.5458553  46.8143833  52.4986493  46.4118553  47.7253833  51.9526493
  46.2338553  46.9933833  52.1706493  42.1708553  53.0853833  47.4646493
  42.1818553  53.1443833  48.3346493  41.7458553  52.3383833  47.3146493
  42.1098553  52.9833833  47.5706493  40.3288553  38.9803833  40.6196493
  40.4548553  38.6513833  39.8216493  39.5168553  38.7313833  40.8186493
  40.2278553  38.8953833  40.5316493  49.0858553  46.1333833  43.6636493
  49.1618553  46.4743833  44.4626493  49.2548553  45.2863833  43.7846493
  49.1218553  46.0583833  43.7996493  46.6078553  45.4073833  43.2286493
  46.3098553  45.0923833  43.9856493  47.3028553  45.8803833  43.4636493
  46.6668553  45.4303833  43.3756493  46.8298553  49.5253833  51.2556493
  47.5168553  49.4113833  51.7806493  46.9638553  50.3163833  50.9116493
  46.9508553  49.6253833  51.2826493  55.0058553  42.1343833  53.0666493
  54.1508553  42.0123833  53.1926493  55.1588553  41.7393833  52.3036493
  54.9018553  42.0573833  52.9726493  49.5188553  42.7993833  51.6426493
  49.2638553  42.0803833  52.0646493  50.3398553  42.9153833  51.9126493
  49.6028553  42.7103833  51.7446493  38.9348553  52.5833833  52.9066493
  38.2808553  52.0143833  53.0046493  38.5598553  53.3563833  53.0576493
  38.7828553  52.6133833  52.9436493  47.4528553  43.9893833  54.8296493
  47.7758553  44.6753833  54.3976493  46.7488553  44.3123833  55.2316493
  47.3958553  44.1383833  54.8246493  50.5368553  52.3633833  45.7586493
  50.0858553  53.0063833  46.1376493  51.2448553  52.2843833  46.2636493
  50.5748553  52.4463833  45.8896493  47.2378553  47.4533833  48.6886493
  46.5438553  47.8553833  49.0316493  47.9148553  47.8863833  49.0276493
  47.2348553  47.5763833  48.7896493  52.6148553  50.0463833  55.2686493
  53.3908553  49.6563833  55.3516493  52.1458553  49.7103833  55.9236493
  52.6598553  49.9393833  55.3776493  40.3058553  40.9913833  51.0356493
  40.6808553  41.6103833  50.5486493  40.9798553  40.5173833  51.3206493
  40.4608553  41.0133833  51.0056493  53.6398553  42.0793833  40.7506493
  53.7428553  42.0213833  39.8866493  54.3808553  41.7473833  41.0686493
  53.7648553  42.0223833  40.6696493  47.5598553  49.0443833  41.8576493
  47.3548553  49.8773833  41.6986493  46.7848553  48.6623833  41.9796493
  47.4148553  49.1113833  41.8526493  52.7418553  42.2253833  50.1066493
  52.7398553  41.3623833  50.2306493  52.8088553  42.5493833  50.9136493
  52.7518553  42.1453833  50.2436493  38.9338553  40.6013833  37.1526493
  38.2618553  40.6153833  37.7086493  39.0288553  39.7533833  36.9686493
  38.8488553  40.4783833  37.2076493  48.6208553  37.0253833  53.8886493
  48.7128553  37.7373833  54.3826493  47.9838553  36.5803833  54.2856493
  48.5398553  37.0643833  54.0206493  47.6148553  37.2153833  44.7426493
  46.9148553  37.7333833  44.6866493  47.6528553  36.8353833  43.9586493
  47.5168553  37.2363833  44.6186493  42.9218553  49.3063833  38.2666493
  43.3628553  49.3863833  39.0146493  42.1168553  49.0903833  38.5246493
  42.8678553  49.2863833  38.4156493  51.2128553  37.7313833  47.5426493
  52.0678553  37.8303833  47.6876493  50.8438553  38.2843833  48.1076493
  51.2848553  37.8283833  47.6476493  42.2408553  43.9573833  51.9196493
  41.8448553  44.7313833  51.9946493  41.8348553  43.5843833  51.2436493
  42.1228553  44.0163833  51.8306493  51.5168553  43.0113833  46.0336493
  52.1828553  43.5523833  46.1936493  51.1718553  43.3223833  45.2946493
  51.5638553  43.1373833  45.9486493  51.8298553  51.0773833  41.8406493
  51.6558553  50.4233833  42.3906493  52.5428553  50.8063833  41.4176493
  51.9098553  50.9403833  41.8596493  40.2508553  48.3763833  38.8676493
  40.0068553  48.0693833  39.6476493  40.2178553  47.6733833  38.3516493
  40.2098553  48.2273833  38.9066493  43.0698553  46.6213833  37.6106493
  42.2518553  46.3533833  37.7506493  43.0418553  47.4733833  37.7956493
  42.9448553  46.7083833  37.6586493  42.6698553  36.9343833  49.3696493
  41.8058553  37.0183833  49.4496493  42.8898553  36.4203833  50.0386493
  42.5748553  36.8713833  49.4806493  54.6878553  35.5693833  50.6986493
  54.6358553  35.5253833  51.5686493  55.3748553  35.0663833  50.5086493
  54.7818553  35.4893833  50.7986493  46.7728553  37.6823833  47.7436493
  46.0358553  37.2283833  47.8566493  47.3438553  37.2803833  48.2666493
  46.7478553  37.5553833  47.8376493  49.5048553  48.5303833  49.5316493
  49.7108553  48.8313833  50.3236493  49.4438553  49.2523833  49.0466493
  49.5258553  48.6813833  49.5766493  49.0388553  52.7443833  53.7776493
  48.2858553  52.7263833  53.3366493  49.2068553  53.5963833  53.8616493
  48.9528553  52.8673833  53.7246493  44.2758553  42.0113833  52.9476493
  43.9538553  41.4353833  52.3776493  43.9168553  42.7663833  52.7016493
  44.1758553  42.0373833  52.8276493  45.0718553  35.2633833  37.5746493
  45.1498553  35.5103833  36.7416493  44.3288553  35.6403833  37.8326493
  44.9738553  35.3553833  37.4896493  54.3168553  47.1693833  48.9896493
  54.2848553  46.3073833  48.8546493  53.6238553  47.4713833  48.5556493
  54.2098553  47.0863833  48.9056493  42.7108553  52.3673833  53.1956493
  42.7518553  52.4933833  54.0586493  43.3618553  51.8073833  53.0396493
  42.8128553  52.3033833  53.3006493  52.4218553  50.4293833  47.7866493
  52.9488553  50.3463833  47.0956493  52.0308553  49.6513833  47.8406493
  52.4418553  50.3023833  47.6926493  48.9358553  35.8733833  46.9946493
  49.6058553  36.4173833  47.1216493  48.4328553  36.2973833  46.4216493
  48.9608553  36.0163833  46.9286493  40.3038553  50.7503833  54.5556493
  40.8988553  51.1813833  55.0276493  39.9398553  51.3743833  54.0666493
  40.3378553  50.9063833  54.5526493  48.2948553  41.6813833  44.4876493
  48.8458553  41.0743833  44.7876493  47.8698553  41.9443833  45.2026493
  48.3138553  41.6303833  44.6366493  38.5428553  40.3313833  43.9736493
  38.1748553  40.6333833  44.7046493  39.0768553  39.7023833  44.2576493
  38.5668553  40.2833833  44.1236493  38.2308553  48.7393833  51.4846493
  37.6568553  49.1553833  51.9936493  38.9638553  49.2043833  51.5796493
  38.2548553  48.8693833  51.5736493  50.2648553  43.5123833  41.0496493
  50.3328553  42.6623833  41.2306493  49.4418553  43.5983833  40.7716493
  50.1528553  43.3993833  41.0356493  40.0168553  52.0063833  40.2596493
  39.8718553  52.1623833  39.4136493  40.8828553  52.0853833  40.3376493
  40.1238553  52.0413833  40.1466493  44.1838553  44.4033833  39.9876493
  44.2838553  44.5423833  39.1326493  45.0018553  44.3433833  40.2836493
  44.3188553  44.4143833  39.9046493  53.3438553  52.4673833  37.4676493
  53.9808553  52.3333833  38.0486493  53.0028553  51.6733833  37.3506493
  53.3878553  52.3303833  37.5356493  53.5388553  44.8853833  54.2006493
  54.1728553  44.7153833  54.7746493  53.9558553  45.2883833  53.5486493
  53.6938553  44.9203833  54.1896493  49.4188553  48.7323833  39.7896493
  49.1678553  48.6043833  40.6156493  49.1018553  48.0373833  39.3686493
  49.3348553  48.6113833  39.8496493  54.1638553  39.4493833  54.9386493
  53.9678553  40.0933833  55.4936493  53.4418553  38.9593833  54.9306493
  54.0288553  39.4723833  55.0196493  54.0628553  40.3903833  47.9096493
  53.2298553  40.6403833  47.8376493  54.0068553  39.5503833  48.1386493
  53.9318553  40.3033833  47.9326493  50.9498553  44.9963833  55.5556493
  51.8208553  44.9603833  55.5196493  50.7308553  45.4163833  54.8236493
  51.0468553  45.0523833  55.4426493  40.7038553  50.8213833  46.7366493
  40.6248553  50.0113833  46.4206493  40.2598553  51.3083833  46.1646493
  40.6268553  50.7733833  46.6056493  46.3048553  46.9403833  39.2196493
  47.0218553  46.5933833  38.8636493  46.2708553  47.7403833  38.8716493
  46.4058553  47.0073833  39.1156493  38.2758553  53.0653833  50.3176493
  38.7688553  53.0093833  51.0356493  38.4638553  52.3323833  49.8826493
  38.3768553  52.9483833  50.3596493  47.7138553  35.5813833  23.4584083
  47.4688553  36.0693833  22.7784083  48.5768553  35.5083833  23.3584083
  47.8048553  35.6423833  23.3434083  47.5228553  42.4973833  28.1294083
  46.9988553  43.0933833  28.4924083  47.9198553  42.1293833  28.8134083
  47.5038553  42.5313833  28.2844083  37.3918553  46.6373833  23.5854083
  36.9508553  46.7553833  24.3284083  37.1088553  45.8623833  23.3004083
  37.2848553  46.5403833  23.6534083  53.6668553  49.9383833  21.1004083
  54.3678553  49.4193833  21.0964083  53.0798553  49.4933833  20.6314083
  53.6838553  49.7953833  21.0304083  37.1348553  40.4293833  20.0924083
  36.3568553  40.5913833  19.7324083  37.1738553  39.5583833  20.1144083
  37.0258553  40.3243833  20.0424083  40.2738553  45.6923833  18.7644083
  39.8818553  45.3213833  18.0784083  40.1938553  45.0943833  19.3934083
  40.2038553  45.5493833  18.7554083  50.1938553  43.5643833  24.8054083
  50.2738553  43.5683833  23.9364083  49.6098553  42.9323833  24.9544083
  50.1188553  43.4713833  24.6994083  39.9008553  47.3333833  22.6644083
  40.5088553  47.1633833  23.2674083  39.1498553  47.1933833  23.0854083
  39.8798553  47.2873833  22.8154083  44.1828553  36.6683833  22.6134083
  44.1128553  37.3453833  22.0674083  44.9238553  36.2803833  22.3644083
  44.2818553  36.7113833  22.4954083  38.7918553  50.4243833  18.7414083
  39.2588553  50.5083833  18.0094083  39.2468553  49.8463833  19.2104083
  38.9278553  50.3513833  18.7024083  37.3318553  49.3723833  29.8404083
  37.4608553  49.0923833  30.6564083  36.7218553  48.8313833  29.5314083
  37.2608553  49.2513833  29.9154083  43.9058553  46.8973833  34.9074083
  43.6698553  46.8943833  35.7474083  43.1578553  46.7493833  34.4834083
  43.7598553  46.8743833  34.9684083  38.7778553  43.8933833  24.0424083
  38.3158553  43.5013833  23.4154083  39.4778553  43.3803833  24.1344083
  38.8128553  43.7603833  23.9634083  43.2858553  39.5033833  29.3894083
  43.9638553  39.5213833  28.8404083  43.2408553  38.6673833  29.6344083
  43.3788553  39.3823833  29.3444083  43.8878553  50.0893833  32.1704083
  44.0258553  50.8493833  31.7634083  44.6788553  49.7243833  32.1974083
  44.0248553  50.1483833  32.1144083  40.7788553  41.9933833  24.0654083
  41.5958553  41.8063833  24.3084083  40.3018553  41.3793833  24.4614083
  40.8288553  41.8753833  24.1604083  44.9828553  47.9743833  26.6754083
  45.3308553  47.1753833  26.7054083  45.6478553  48.4783833  26.4204083
  45.1328553  47.9303833  26.6424083  45.0398553  47.4233833  22.8864083
  45.3708553  46.7793833  23.3724083  45.2798553  47.2123833  22.0754083
  45.1238553  47.2973833  22.8384083  47.0078553  41.5543833  34.2254083
  46.1598553  41.4553833  34.0474083  47.0368553  42.2993833  34.6794083
  46.8868553  41.6503833  34.2664083  41.3758553  37.0873833  23.3314083
  41.0798553  37.5883833  22.6814083  42.2428553  37.1653833  23.2744083
  41.4598553  37.1733833  23.2274083  51.5658553  34.5143833  33.3394083
  51.4078553  35.2833833  32.9574083  50.7938553  34.2943833  33.6834083
  51.4278553  34.5953833  33.3344083  44.3548553  36.2293833  25.5544083
  44.4278553  37.0893833  25.6834083  44.3168553  36.1543833  24.6864083
  44.3598553  36.3453833  25.4454083  49.0278553  39.1553833  17.8534083
  48.5778553  39.8363833  18.1604083  49.1418553  38.6513833  18.5564083
  48.9788553  39.1813833  18.0024083  37.2338553  41.6543833  27.0554083
  36.9778553  42.4853833  26.9804083  36.5698553  41.2713833  27.4724083
  37.0978553  41.7203833  27.1064083  37.1438553  51.3643833  24.9554083
  36.5518553  51.9223833  24.6424083  37.5698553  51.0953833  24.2434083
  37.1198553  51.4063833  24.8044083  42.9838553  49.2083833  22.4354083
  42.4048553  48.9333833  23.0274083  43.6078553  48.5993833  22.4604083
  42.9908553  49.0783833  22.5264083  49.1268553  51.4963833  19.9574083
  49.8538553  51.9683833  20.0594083  49.3558553  50.7023833  20.2374083
  49.2688553  51.4493833  20.0144083  47.2948553  51.8883833  21.9474083
  47.5088553  52.4153833  22.6094083  48.0618553  51.7143833  21.5684083
  47.4398553  51.9403833  21.9894083  40.2628553  36.4713833  27.5464083
  39.7418553  35.8433833  27.2384083  40.8538553  36.0343833  28.0174083
  40.2738553  36.3133833  27.5704083  43.5688553  38.6043833  36.8444083
  43.6858553  38.1503833  36.1084083  43.8568553  39.4023833  36.6414083
  43.6288553  38.6553833  36.7054083  38.6888553  50.0343833  22.8864083
  39.3448553  49.4593833  22.9014083  39.0778553  50.7833833  22.6654083
  38.8438553  50.0593833  22.8564083  54.4218553  39.1283833  24.1484083
  54.0758553  39.8063833  24.5744083  53.7858553  38.5303833  24.1644083
  54.2768553  39.1403833  24.2134083  49.7338553  51.8983833  30.2524083
  50.4778553  52.3543833  30.2424083  49.6128553  51.6843833  29.4154083
  49.8258553  51.9343833  30.1274083  39.3018553  38.2013833  35.8284083
  38.5238553  37.8113833  35.7564083  39.7928553  37.7893833  35.2374083
  39.2588553  38.0823833  35.7304083  39.5068553  48.5213833  26.3864083
  39.9298553  48.1653833  25.7124083  39.8308553  48.0993833  27.0784083
  39.6168553  48.4063833  26.3894083  42.7378553  51.3733833  25.6824083
  43.5818553  51.4773833  25.4874083  42.4408553  52.1913833  25.7504083
  42.8188553  51.5093833  25.6634083  45.9508553  35.8443833  34.9964083
  46.1288553  35.0353833  34.7214083  45.8078553  36.2853833  34.2574083
  45.9558553  35.7903833  34.8464083  46.5448553  40.7703833  23.7694083
  46.8318553  40.5383833  22.9794083  47.2768553  40.8493833  24.2384083
  46.6948553  40.7473833  23.7224083  47.2668553  41.1093833  18.8904083
  47.5478553  41.8973833  19.1394083  46.4908553  41.2743833  18.5274083
  47.1938553  41.2503833  18.8734083  51.3078553  53.0833833  20.3574083
  51.9728553  52.9353833  19.8124083  51.6678553  53.0003833  21.1474083
  51.4598553  53.0493833  20.3934083  41.7358553  52.5923833  31.4224083
  42.0278553  52.5253833  32.2424083  41.1098553  51.9873833  31.3774083
  41.6868553  52.4933833  31.5374083  54.0968553  37.4513833  29.5174083
  54.8538553  37.5233833  29.0894083  54.1598553  36.6783833  29.9164083
  54.2178553  37.3483833  29.5124083  36.6498553  38.7493833  33.4144083
  36.6458553  39.3363833  34.0604083  37.2438553  39.0613833  32.8574083
  36.7368553  38.8823833  33.4274083  48.9878553  49.0833833  33.9564083
  48.9538553  49.4653833  34.7404083  49.8418553  49.0413833  33.7854083
  49.1088553  49.1333833  34.0474083  46.1258553  49.2803833  18.7064083
  45.9448553  49.8253833  19.3634083  46.8918553  49.5703833  18.4054083
  46.2118553  49.4043833  18.7594083  49.6328553  37.1763833  19.7604083
  50.1728553  36.4943833  19.8364083  49.6948553  37.5743833  20.5344083
  49.7218553  37.1343833  19.8864083  37.5868553  38.3443833  22.3294083
  37.4728553  37.4803833  22.3604083  37.1118553  38.6383833  22.9994083
  37.4998553  38.2603833  22.4324083  39.7288553  50.7543833  30.5444083
  39.0308553  50.2463833  30.6704083  39.9888553  50.5493833  29.7364083
  39.6638553  50.6493833  30.4434083  46.8908553  39.5523833  21.0744083
  46.3828553  38.8903833  20.8204083  46.9428553  40.0563833  20.3644083
  46.8238553  39.5293833  20.9324083  47.4398553  52.2473833  31.4544083
  48.2078553  52.1673833  31.0484083  46.8568553  52.1263833  30.8164083
  47.4668553  52.2173833  31.3004083  46.8908553  36.4933833  20.9654083
  46.4358553  36.0913833  20.3394083  47.6638553  36.6483833  20.5904083
  46.9378553  36.4573833  20.8174083  53.7168553  52.8503833  24.3554083
  53.2618553  53.5673833  24.5564083  53.1028553  52.2793833  24.1134083
  53.5588553  52.8723833  24.3494083  45.4888553  38.8603833  25.4874083
  45.5628553  39.4283833  24.8294083  45.6098553  39.3523833  26.1974083
  45.5168553  39.0173833  25.4954083  50.7138553  48.6953833  23.8994083
  51.4148553  48.2133833  24.0884083  50.0538553  48.1263833  23.9444083
  50.7198553  48.5403833  23.9334083  41.0898553  49.6053833  33.1114083
  41.9308553  49.6683833  32.8894083  41.0528553  50.0023833  33.8874083
  41.2088553  49.6733833  33.1934083  40.0968553  34.6833833  23.8354083
  40.6328553  35.3713833  23.8254083  40.0998553  34.4093833  23.0074083
  40.1758553  34.7443833  23.7114083  43.0528553  45.1163833  27.8604083
  43.2248553  44.9063833  28.6894083  42.3978553  44.5823833  27.6444083
  42.9818553  45.0063833  27.9514083  49.2808553  39.0303833  31.3754083
  49.1858553  39.3493833  32.1814083  48.6878553  38.3913833  31.3374083
  49.1788553  38.9823833  31.4894083  43.8028553  45.0543833  30.4504083
  43.8558553  45.9013833  30.6524083  43.5178553  44.6843833  31.1874083
  43.7688553  45.1243833  30.5884083  49.9798553  45.7493833  29.5804083
  49.4658553  45.3373833  30.1514083  49.8538553  46.5933833  29.7614083
  49.8858553  45.8133833  29.6914083  50.5368553  34.9743833  24.2114083
  50.5858553  34.6563833  25.0224083  50.8598553  34.3303833  23.7184083
  50.5918553  34.8323833  24.2584083  36.6238553  49.4253833  36.6614083
  37.3798553  49.7743833  36.9194083  36.8008553  48.5723833  36.6044083
  36.7618553  49.3503833  36.6914083  53.0008553  39.2103833  32.5194083
  53.7728553  38.9853833  32.8564083  52.5258553  39.4273833  33.2194083
  53.0448553  39.2093833  32.6724083  40.5448553  38.4933833  25.4894083
  40.8168553  38.0633833  24.7814083  40.3688553  37.8573833  26.0604083
  40.5588553  38.3363833  25.4694083  53.2328553  46.1883833  19.7074083
  53.3518553  45.9013833  20.5224083  54.0398553  46.2093833  19.3774083
  53.3688553  46.1493833  19.7794083  40.3688553  45.9203833  25.0384083
  41.2198553  45.8403833  24.8654083  40.0118553  45.2383833  24.6264083
  40.4418553  45.8073833  24.9514083  39.1358553  52.6453833  26.2754083
  38.4628553  52.1473833  26.0304083  39.5388553  52.8303833  25.5244083
  39.0958553  52.5993833  26.1284083  38.6858553  39.5953833  28.5714083
  39.5288553  39.8153833  28.5284083  38.2968553  40.1683833  28.0404083
  38.7528553  39.7123833  28.4864083  55.4668553  50.6973833  33.9614083
  54.7848553  51.0073833  33.5144083  55.0978553  50.2393833  34.6064083
  55.3108553  50.6753833  33.9904083  51.1278553  42.7253833  19.2924083
  50.9078553  43.4563833  18.8704083  50.6798553  42.7763833  20.0394083
  51.0288553  42.8403833  19.3404083  42.7368553  45.9273833  23.2734083
  43.4498553  46.4223833  23.3634083  42.9588553  45.3603833  22.6474083
  42.8748553  45.9163833  23.1944083  55.3148553  37.5863833  18.7454083
  54.6528553  37.0183833  18.7684083  55.1218553  38.0983833  18.0654083
  55.1888553  37.5783833  18.6484083  36.8928553  47.5703833  26.5934083
  36.2258553  48.0583833  26.8694083  37.5728553  48.1153833  26.6224083
  36.8948553  47.7223833  26.6384083  44.5398553  41.2803833  36.6894083
  44.0558553  41.8573833  37.1314083  44.5118553  41.5753833  35.8684083
  44.4638553  41.4093833  36.6334083  55.6378553  41.9643833  31.3014083
  55.8528553  41.1643833  31.0254083  54.7878553  42.0243833  31.1124083
  55.5438553  41.8553833  31.2324083  36.9588553  44.2543833  21.6964083
  36.7738553  43.4153833  21.8484083  37.6178553  44.2183833  21.1264083
  37.0288553  44.1253833  21.6344083  53.3168553  37.1443833  21.0244083
  54.0628553  36.7373833  21.2234083  53.5798553  37.8593833  20.5994083
  53.4658553  37.1903833  20.9914083  47.2598553  49.6303833  25.6004083
  46.7368553  50.2643833  25.3074083  47.5698553  49.2663833  24.8714083
  47.2278553  49.6703833  25.4494083  37.1308553  48.4183833  21.2714083
  37.6828553  48.9873833  21.6354083  36.8988553  47.9033833  21.9364083
  37.1778553  48.4263833  21.4234083  41.3348553  47.4183833  28.3604083
  41.8018553  47.7073833  29.0384083  41.9068553  46.9403833  27.9064083
  41.4888553  47.3903833  28.3934083  49.7708553  39.4323833  26.0974083
  50.1148553  39.5843833  26.8844083  49.3178553  38.6943833  26.2104083
  49.7548553  39.3453833  26.2304083  36.9608553  46.8673833  18.8994083
  37.7168553  46.4353833  18.9574083  36.9758553  47.3993833  19.5904083
  37.0748553  46.8823833  19.0104083  37.9008553  45.0883833  26.9044083
  38.3318553  44.9593833  26.1574083  37.6958553  45.9363833  26.8784083
  37.9338553  45.1943833  26.7904083  44.2468553  38.6523833  20.5544083
  44.2448553  38.5353833  19.6894083  44.0658553  39.5003833  20.6464083
  44.2198553  38.7603833  20.4404083  53.3008553  51.0793833  32.0514083
  52.6298553  51.5933833  32.2694083  53.3638553  51.1793833  31.1874083
  53.2108553  51.1703833  31.9564083  41.9848553  48.6043833  25.1864083
  42.1108553  49.4473833  25.3734083  42.6528553  48.2053833  25.5824083
  42.1028553  48.6703833  25.2724083  40.1148553  42.0873833  35.0484083
  39.5788553  41.5813833  35.5164083  40.1348553  41.6973833  34.2684083
  40.0378553  41.9543833  35.0024083  40.5998553  41.4843833  20.1884083
  40.4718553  41.0363833  20.9264083  40.0178553  41.1423833  19.6364083
  40.4948553  41.3673833  20.2164083  40.7668553  43.3143833  26.7874083
  39.9858553  43.2553833  26.4044083  40.8388553  42.5623833  27.2244083
  40.6618553  43.1953833  26.7954083  41.1968553  43.0513833  30.2554083
  41.2218553  42.3763833  29.7044083  40.5508553  43.5473833  29.9434083
  41.1058553  43.0243833  30.1284083  51.0918553  40.7643833  28.6514083
  50.4298553  41.0923833  29.1144083  51.2788553  41.3983833  28.0824083
  51.0218553  40.9063833  28.6354083  45.2968553  51.8283833  29.6474083
  45.0198553  51.1873833  29.1244083  45.0888553  52.5543833  29.2094083
  45.2258553  51.8413833  29.5054083  47.7368553  36.6703833  32.0804083
  47.8858553  35.8453833  31.8374083  48.1158553  36.7253833  32.8644083
  47.8148553  36.5563833  32.1604083  49.2848553  38.7333833  22.1624083
  49.7748553  39.4503833  22.0854083  48.4948553  38.9943833  21.8994083
  49.2408553  38.8773833  22.1124083  38.9958553  44.4063833  35.8144083
  38.9588553  44.9073833  35.1004083  39.3268553  43.6543833  35.5194083
  39.0388553  44.3683833  35.6654083  50.5988553  46.6113833  34.0724083
  51.0828553  47.3293833  34.1704083  50.9928553  46.1843833  33.4214083
  50.7288553  46.6543833  33.9904083  44.8948553  49.4563833  35.2494083
  45.2488553  49.2783833  36.0264083  44.4588553  48.7273833  35.0504083
  44.8828553  49.3223833  35.3354083  48.0558553  43.3723833  20.1614083
  48.0478553  44.0943833  19.6714083  47.4168553  43.5073833  20.7384083
  47.9608553  43.4993833  20.1744083  53.0278553  47.2423833  24.1424083
  53.3838553  46.8923833  24.8574083  53.0198553  46.5813833  23.5724083
  53.0798553  47.0923833  24.1634083  49.0728553  50.3083833  27.9864083
  48.4698553  50.0123833  27.4294083  49.6178553  50.7603833  27.4774083
  49.0638553  50.3313833  27.8284083  49.0858553  47.1593833  27.3864083
  48.2888553  47.3833833  27.6604083  49.3438553  46.5653833  27.9714083
  49.0058553  47.1043833  27.5134083  42.9778553  51.9713833  21.8344083
  42.8308553  51.1953833  22.2054083  43.6668553  51.8243833  21.3194083
  43.0578553  51.8343833  21.8134083  42.6488553  35.7143833  19.8224083
  42.7458553  35.6073833  20.6834083  41.9408553  36.2203833  19.7574083
  42.5588553  35.7733833  19.9404083  45.2698553  51.4873833  20.2364083
  45.8918553  51.6503833  20.8264083  45.3058553  52.1783833  19.7044083
  45.3668553  51.6133833  20.2454083  52.3458553  45.1573833  32.2324083
  52.4008553  45.2823833  31.3704083  53.0988553  45.4773833  32.5344083
  52.4648553  45.2223833  32.1494083  48.5368553  50.5063833  36.5094083
  48.7008553  50.7893833  37.3184083  48.7998553  51.1673833  36.0044083
  48.5998553  50.6463833  36.5544083  53.3778553  35.4553833  35.2194083
  52.7408553  35.0553833  34.7774083  53.4038553  35.0243833  35.9774083
  53.2878553  35.3333833  35.2654083  39.7708553  44.0213833  21.0654083
  40.0948553  43.2423833  20.8434083  40.4168553  44.3893833  21.5204083
  39.9138553  43.9603833  21.0994083  48.0768553  44.9633833  31.8324083
  47.9218553  45.5733833  32.4364083  48.6108553  44.4053833  32.2384083
  48.1328553  44.9713833  31.9814083  36.7678553  35.6823833  22.0334083
  36.8968553  34.9743833  21.5414083  36.4008553  35.3643833  22.7584083
  36.7328553  35.5303833  22.0684083  46.4608553  43.3633833  22.4904083
  46.5198553  44.0133833  23.0694083  46.2718553  42.6673833  22.9814083
  46.4418553  43.3563833  22.6484083  51.6868553  47.6923833  28.3594083
  51.2078553  47.9903833  27.6934083  51.3308553  46.9163833  28.5374083
  51.5638553  47.6213833  28.2874083  40.9568553  37.8803833  19.0024083
  40.4458553  37.9333833  18.2964083  41.7408553  38.1203833  18.7064083
  40.9968553  37.9233833  18.8544083  45.6838553  45.4103833  26.9214083
  44.8368553  45.2163833  27.0024083  46.0078553  45.2453833  27.7144083
  45.6058553  45.3573833  27.0504083  42.4358553  52.1403833  17.8074083
  42.8748553  51.4433833  18.0954083  42.6428553  52.7643833  18.3804083
  42.5318553  52.1293833  17.9344083  39.5318553  45.1033833  29.2374083
  40.2538553  45.5913833  29.2004083  39.2618553  45.0733833  28.4084083
  39.5988553  45.1713833  29.1094083  42.7618553  40.2743833  25.9724083
  43.6078553  40.0843833  26.0704083  42.3918553  39.4973833  25.8344083
  42.8318553  40.1313833  25.9664083  55.3788553  51.8583833  20.2994083
  56.0728553  51.3913833  20.0514083  54.8398553  51.2603833  20.6364083
  55.4018553  51.7003833  20.3124083  37.5828553  41.6123833  22.6274083
  38.0718553  41.3203833  23.2884083  37.7118553  41.0193833  22.0004083
  37.6738553  41.4813833  22.6324083  52.6178553  44.6343833  29.4784083
  52.6108553  43.8583833  29.8764083  51.7768553  44.8683833  29.4714083
  52.4928553  44.5543833  29.5364083  42.1078553  43.0463833  18.1134083
  41.4978553  42.6413833  18.5874083  41.7218553  43.1643833  17.3404083
  41.9608553  43.0033833  18.0694083  38.9268553  46.1553833  33.5154083
  38.5058553  45.6373833  32.9544083  38.5748553  46.9413833  33.3724083
  38.8128553  46.1953833  33.4114083  53.8738553  44.7053833  26.9154083
  53.5878553  45.1063833  27.6354083  54.7338553  44.6433833  27.0424083
  53.9588553  44.7553833  27.0404083  43.5628553  41.5073833  20.8234083
  43.8348553  42.3333833  20.8904083  42.6998553  41.5823833  20.7274083
  43.4758553  41.6403833  20.8184083  51.5358553  38.6293833  35.4554083
  51.0108553  39.0883833  35.9794083  51.1748553  37.8343833  35.4494083
  51.4048553  38.5793833  35.5314083  37.0428553  37.4773833  27.3594083
  37.0868553  37.8213833  26.5584083  37.7978553  37.7143833  27.7264083
  37.1608553  37.5633833  27.2954083  55.0048553  50.3383833  27.4444083
  55.2948553  50.5953833  26.6634083  55.6998553  50.4343833  27.9634083
  55.1508553  50.3903833  27.4054083  50.0278553  42.1983833  35.5314083
  50.1008553  42.3023833  36.3944083  49.3938553  42.7563833  35.3104083
  49.9448553  42.2963833  35.6264083  52.2958553  42.5173833  33.8964083
  52.6148553  43.3033833  34.0994083  51.9258553  42.2473833  34.6394083
  52.2888553  42.5933833  34.0364083  51.6098553  48.9413833  19.4264083
  51.9438553  48.1353833  19.4614083  50.8548553  48.8693833  19.8564083
  51.5478553  48.8113833  19.4954083  52.0918553  40.7753833  25.0854083
  51.3468553  40.4523833  25.4034083  52.0938553  41.6013833  25.3654083
  51.9818553  40.8493833  25.1734083  54.9938553  43.0593833  36.6314083
  54.9418553  42.7183833  35.8304083  55.7308553  43.5263833  36.6094083
  55.0948553  43.0783833  36.5094083  54.5318553  46.7353833  32.8374083
  55.1598553  46.1863833  32.5814083  54.4708553  47.3003833  32.1754083
  54.6158553  46.7383833  32.7014083  48.9838553  46.8163833  18.8294083
  49.6678553  46.3023833  18.6604083  48.5668553  46.8623833  18.0644083
  49.0228553  46.7473833  18.6914083  43.6658553  47.9663833  30.1334083
  43.3678553  48.5583833  30.7004083  43.7208553  48.4083833  29.3844083
  43.6298553  48.1193833  30.1064083  41.6448553  46.9163833  33.5314083
  40.8388553  46.6263833  33.6984083  41.5558553  47.7843833  33.5374083
  41.5128553  47.0013833  33.5564083  51.0038553  37.1053833  32.5464083
  51.7478553  37.5573833  32.4834083  50.4378553  37.5753833  32.0774083
  51.0308553  37.2423833  32.4684083  46.1818553  44.3893833  29.6244083
  46.6578553  44.7633833  30.2524083  45.3588553  44.5233833  29.8834083
  46.1308553  44.4643833  29.7554083  42.8918553  39.9923833  32.3654083
  43.0528553  39.2483833  32.7924083  42.8468553  39.7433833  31.5304083
  42.9088553  39.8453833  32.3054083  45.4458553  51.7823833  24.8524083
  45.9918553  52.4613833  24.9064083  45.0958553  51.8643833  24.0574083
  45.4748553  51.8953833  24.7424083  52.2888553  35.0853833  30.2164083
  52.0088553  35.9103833  30.1724083  53.0048553  35.1383833  30.7124083
  52.3538553  35.2153833  30.2834083  44.6438553  35.8003833  32.2454083
  45.3488553  36.1203833  31.8434083  44.8848553  34.9933833  32.4724083
  44.7828553  35.7283833  32.2194083  43.6288553  50.0103833  28.2414083
  43.0048553  50.5923833  28.0594083  43.8768553  49.7243833  27.4554083
  43.5728553  50.0543833  28.0984083  47.9378553  46.6443833  35.2304083
  48.6948553  46.9303833  34.9044083  47.3908553  46.6963833  34.5524083
  47.9688553  46.6943833  35.0814083  51.8468553  49.1943833  33.7344083
  52.1928553  49.4643833  34.4884083  52.1408553  49.7763833  33.1544083
  51.9418553  49.3203833  33.7604083  53.7098553  41.3403833  19.0734083
  54.0878553  42.0173833  18.6734083  52.8678553  41.5643833  19.1044083
  53.6408553  41.4733833  19.0184083  45.2228553  44.7863833  18.1564083
  44.4178553  44.6093833  17.8714083  45.1898553  45.6373833  18.3484083
  45.0988553  44.8853833  18.1434083  41.1528553  40.8533833  28.3064083
  41.5928553  40.7503833  27.5604083  41.6978553  40.5403833  28.9114083
  41.2978553  40.7923833  28.2854083  49.1688553  39.9553833  33.8984083
  48.5208553  40.4253833  34.2464083  49.7338553  39.8663833  34.5574083
  49.1568553  40.0113833  34.0474083  48.8568553  41.4923833  30.1964083
  49.1588553  41.9123833  30.8994083  48.8928553  40.6523833  30.4284083
  48.9068553  41.4303833  30.3344083  46.2818553  51.6593833  34.1214083
  46.7598553  51.0593833  33.7054083  45.9308553  51.2163833  34.7864083
  46.3008553  51.5053833  34.1584083  51.4048553  40.9393833  22.4484083
  51.6118553  40.7383833  23.2724083  52.1608553  41.2073833  22.1064083
  51.5468553  40.9493833  22.5194083  44.6998553  35.8383833  28.3534083
  43.8738553  35.6893833  28.5904083  44.6598553  35.8733833  27.4824083
  44.5718553  35.8213833  28.2594083  52.4268553  37.0223833  23.9224083
  51.7128553  36.5513833  24.0934083  52.2648553  37.3633833  23.1364083
  52.2978553  37.0033833  23.8314083  52.8698553  44.9663833  22.3024083
  53.3458553  44.2373833  22.2544083  52.0488553  44.6803833  22.2264083
  52.8188553  44.8163833  22.2834083  46.3408553  46.8783833  33.1414083
  45.5458553  46.8143833  33.4924083  46.4118553  47.7253833  32.9464083
  46.2338553  46.9933833  33.1644083  37.2648553  36.2363833  34.3884083
  37.1248553  37.0313833  34.0574083  36.4788553  35.9933833  34.6774083
  37.1278553  36.3183833  34.3824083  42.1708553  53.0853833  28.4584083
  42.1818553  53.1443833  29.3284083  41.7458553  52.3383833  28.3084083
  42.1098553  52.9833833  28.5644083  40.3288553  38.9803833  21.6134083
  40.4548553  38.6513833  20.8154083  39.5168553  38.7313833  21.8124083
  40.2278553  38.8953833  21.5254083  49.0858553  46.1333833  24.6574083
  49.1618553  46.4743833  25.4564083  49.2548553  45.2863833  24.7784083
  49.1218553  46.0583833  24.7934083  46.6078553  45.4073833  24.2224083
  46.3098553  45.0923833  24.9794083  47.3028553  45.8803833  24.4574083
  46.6668553  45.4303833  24.3694083  46.8298553  49.5253833  32.2494083
  47.5168553  49.4113833  32.7744083  46.9638553  50.3163833  31.9054083
  46.9508553  49.6253833  32.2764083  55.0058553  42.1343833  34.0604083
  54.1508553  42.0123833  34.1864083  55.1588553  41.7393833  33.2974083
  54.9018553  42.0573833  33.9664083  49.5188553  42.7993833  32.6364083
  49.2638553  42.0803833  33.0584083  50.3398553  42.9153833  32.9064083
  49.6028553  42.7103833  32.7384083  38.9348553  52.5833833  33.9004083
  38.2808553  52.0143833  33.9984083  38.5598553  53.3563833  34.0514083
  38.7828553  52.6133833  33.9374083  47.4528553  43.9893833  35.8234083
  47.7758553  44.6753833  35.3914083  46.7488553  44.3123833  36.2254083
  47.3958553  44.1383833  35.8184083  50.5368553  52.3633833  26.7524083
  50.0858553  53.0063833  27.1314083  51.2448553  52.2843833  27.2574083
  50.5748553  52.4463833  26.8834083  47.2378553  47.4533833  29.6824083
  46.5438553  47.8553833  30.0254083  47.9148553  47.8863833  30.0214083
  47.2348553  47.5763833  29.7834083  52.6148553  50.0463833  36.2624083
  53.3908553  49.6563833  36.3454083  52.1458553  49.7103833  36.9174083
  52.6598553  49.9393833  36.3714083  40.3058553  40.9913833  32.0294083
  40.6808553  41.6103833  31.5424083  40.9798553  40.5173833  32.3144083
  40.4608553  41.0133833  31.9994083  38.0808553  39.4393833  31.3044083
  38.1578553  39.2703833  30.4514083  38.8268553  39.8453833  31.5014083
  38.2018553  39.4743833  31.2074083  53.6398553  42.0793833  21.7444083
  53.7428553  42.0213833  20.8804083  54.3808553  41.7473833  22.0624083
  53.7648553  42.0223833  21.6634083  40.6348553  36.8493833  33.7154083
  40.5538553  36.0053833  33.9214083  40.3208553  36.8933833  32.9024083
  40.5768553  36.7313833  33.6254083  47.5598553  49.0443833  22.8514083
  47.3548553  49.8773833  22.6924083  46.7848553  48.6623833  22.9734083
  47.4148553  49.1113833  22.8464083  52.7418553  42.2253833  31.1004083
  52.7398553  41.3623833  31.2244083  52.8088553  42.5493833  31.9074083
  52.7518553  42.1453833  31.2374083  37.4778553  44.6653833  31.5284083
  37.7978553  44.8843833  30.7474083  37.3778553  43.8003833  31.4734083
  37.5098553  44.5703833  31.4054083  38.9338553  40.6013833  18.1464083
  38.2618553  40.6153833  18.7024083  39.0288553  39.7533833  17.9624083
  38.8488553  40.4783833  18.2014083  48.6208553  37.0253833  34.8824083
  48.7128553  37.7373833  35.3764083  47.9838553  36.5803833  35.2794083
  48.5398553  37.0643833  35.0144083  47.6148553  37.2153833  25.7364083
  46.9148553  37.7333833  25.6804083  47.6528553  36.8353833  24.9524083
  47.5168553  37.2363833  25.6124083  42.9218553  49.3063833  19.2604083
  43.3628553  49.3863833  20.0084083  42.1168553  49.0903833  19.5184083
  42.8678553  49.2863833  19.4094083  51.2128553  37.7313833  28.5364083
  52.0678553  37.8303833  28.6814083  50.8438553  38.2843833  29.1014083
  51.2848553  37.8283833  28.6414083  42.2408553  43.9573833  32.9134083
  41.8448553  44.7313833  32.9884083  41.8348553  43.5843833  32.2374083
  42.1228553  44.0163833  32.8244083  51.5168553  43.0113833  27.0274083
  52.1828553  43.5523833  27.1874083  51.1718553  43.3223833  26.2884083
  51.5638553  43.1373833  26.9424083  51.8298553  51.0773833  22.8344083
  51.6558553  50.4233833  23.3844083  52.5428553  50.8063833  22.4114083
  51.9098553  50.9403833  22.8534083  40.2508553  48.3763833  19.8614083
  40.0068553  48.0693833  20.6414083  40.2178553  47.6733833  19.3454083
  40.2098553  48.2273833  19.9004083  43.0698553  46.6213833  18.6044083
  42.2518553  46.3533833  18.7444083  43.0418553  47.4733833  18.7894083
  42.9448553  46.7083833  18.6524083  42.6698553  36.9343833  30.3634083
  41.8058553  37.0183833  30.4434083  42.8898553  36.4203833  31.0324083
  42.5748553  36.8713833  30.4744083  54.6878553  35.5693833  31.6924083
  54.6358553  35.5253833  32.5624083  55.3748553  35.0663833  31.5024083
  54.7818553  35.4893833  31.7924083  46.7728553  37.6823833  28.7374083
  46.0358553  37.2283833  28.8504083  47.3438553  37.2803833  29.2604083
  46.7478553  37.5553833  28.8314083  49.5048553  48.5303833  30.5254083
  49.7108553  48.8313833  31.3174083  49.4438553  49.2523833  30.0404083
  49.5258553  48.6813833  30.5704083  49.0388553  52.7443833  34.7714083
  48.2858553  52.7263833  34.3304083  49.2068553  53.5963833  34.8554083
  48.9528553  52.8673833  34.7184083  44.2758553  42.0113833  33.9414083
  43.9538553  41.4353833  33.3714083  43.9168553  42.7663833  33.6954083
  44.1758553  42.0373833  33.8214083  45.0718553  35.2633833  18.5684083
  45.1498553  35.5103833  17.7354083  44.3288553  35.6403833  18.8264083
  44.9738553  35.3553833  18.4834083  54.3168553  47.1693833  29.9834083
  54.2848553  46.3073833  29.8484083  53.6238553  47.4713833  29.5494083
  54.2098553  47.0863833  29.8994083  42.7108553  52.3673833  34.1894083
  42.7518553  52.4933833  35.0524083  43.3618553  51.8073833  34.0334083
  42.8128553  52.3033833  34.2944083  52.4218553  50.4293833  28.7804083
  52.9488553  50.3463833  28.0894083  52.0308553  49.6513833  28.8344083
  52.4418553  50.3023833  28.6864083  39.8898553  37.0173833  31.0114083
  39.5468553  36.2503833  30.7774083  39.1948553  37.5413833  31.0754083
  39.7368553  36.9813833  30.9864083  48.9358553  35.8733833  27.9884083
  49.6058553  36.4173833  28.1154083  48.4328553  36.2973833  27.4154083
  48.9608553  36.0163833  27.9224083  40.3038553  50.7503833  35.5494083
  40.8988553  51.1813833  36.0214083  39.9398553  51.3743833  35.0604083
  40.3378553  50.9063833  35.5464083  48.2948553  41.6813833  25.4814083
  48.8458553  41.0743833  25.7814083  47.8698553  41.9443833  26.1964083
  48.3138553  41.6303833  25.6304083  38.5428553  40.3313833  24.9674083
  38.1748553  40.6333833  25.6984083  39.0768553  39.7023833  25.2514083
  38.5668553  40.2833833  25.1174083  38.2308553  48.7393833  32.4784083
  37.6568553  49.1553833  32.9874083  38.9638553  49.2043833  32.5734083
  38.2548553  48.8693833  32.5674083  50.2648553  43.5123833  22.0434083
  50.3328553  42.6623833  22.2244083  49.4418553  43.5983833  21.7654083
  50.1528553  43.3993833  22.0294083  40.0168553  52.0063833  21.2534083
  39.8718553  52.1623833  20.4074083  40.8828553  52.0853833  21.3314083
  40.1238553  52.0413833  21.1404083  44.1838553  44.4033833  20.9814083
  44.2838553  44.5423833  20.1264083  45.0018553  44.3433833  21.2774083
  44.3188553  44.4143833  20.8984083  53.3438553  52.4673833  18.4614083
  53.9808553  52.3333833  19.0424083  53.0028553  51.6733833  18.3444083
  53.3878553  52.3303833  18.5294083  53.5388553  44.8853833  35.1944083
  54.1728553  44.7153833  35.7684083  53.9558553  45.2883833  34.5424083
  53.6938553  44.9203833  35.1834083  49.4188553  48.7323833  20.7834083
  49.1678553  48.6043833  21.6094083  49.1018553  48.0373833  20.3624083
  49.3348553  48.6113833  20.8434083  54.1638553  39.4493833  35.9324083
  53.9678553  40.0933833  36.4874083  53.4418553  38.9593833  35.9244083
  54.0288553  39.4723833  36.0134083  54.0628553  40.3903833  28.9034083
  53.2298553  40.6403833  28.8314083  54.0068553  39.5503833  29.1324083
  53.9318553  40.3033833  28.9264083  43.3228553  37.3783833  34.0974083
  43.5568553  36.8023833  33.4844083  42.4808553  37.1973833  34.2384083
  43.2328553  37.2663833  34.0274083  50.9498553  44.9963833  36.5494083
  51.8208553  44.9603833  36.5134083  50.7308553  45.4163833  35.8174083
  51.0468553  45.0523833  36.4364083  40.7038553  50.8213833  27.7304083
  40.6248553  50.0113833  27.4144083  40.2598553  51.3083833  27.1584083
  40.6268553  50.7733833  27.5994083  46.3048553  46.9403833  20.2134083
  47.0218553  46.5933833  19.8574083  46.2708553  47.7403833  19.8654083
  46.4058553  47.0073833  20.1094083  38.2758553  53.0653833  31.3114083
  38.7688553  53.0093833  32.0294083  38.4638553  52.3323833  30.8764083
  38.3768553  52.9483833  31.3534083  47.7138553  35.5813833   4.4521673
  47.4688553  36.0693833   3.7721673  48.5768553  35.5083833   4.3521673
  47.8048553  35.6423833   4.3371673  47.5228553  42.4973833   9.1231673
  46.9988553  43.0933833   9.4861673  47.9198553  42.1293833   9.8071673
  47.5038553  42.5313833   9.2781673  37.3918553  46.6373833   4.5791673
  36.9508553  46.7553833   5.3221673  37.1088553  45.8623833   4.2941673
  37.2848553  46.5403833   4.6471673  53.6668553  49.9383833   2.0941673
  54.3678553  49.4193833   2.0901673  53.0798553  49.4933833   1.6251673
  53.6838553  49.7953833   2.0241673  50.1938553  43.5643833   5.7991673
  50.2738553  43.5683833   4.9301673  49.6098553  42.9323833   5.9481673
  50.1188553  43.4713833   5.6931673  39.9008553  47.3333833   3.6581673
  40.5088553  47.1633833   4.2611673  39.1498553  47.1933833   4.0791673
  39.8798553  47.2873833   3.8091673  44.1828553  36.6683833   3.6071673
  44.1128553  37.3453833   3.0611673  44.9238553  36.2803833   3.3581673
  44.2818553  36.7113833   3.4891673  37.3318553  49.3723833  10.8341673
  37.4608553  49.0923833  11.6501673  36.7218553  48.8313833  10.5251673
  37.2608553  49.2513833  10.9091673  43.9058553  46.8973833  15.9011673
  43.6698553  46.8943833  16.7411673  43.1578553  46.7493833  15.4771673
  43.7598553  46.8743833  15.9621673  38.7778553  43.8933833   5.0361673
  38.3158553  43.5013833   4.4091673  39.4778553  43.3803833   5.1281673
  38.8128553  43.7603833   4.9571673  43.2858553  39.5033833  10.3831673
  43.9638553  39.5213833   9.8341673  43.2408553  38.6673833  10.6281673
  43.3788553  39.3823833  10.3381673  43.8878553  50.0893833  13.1641673
  44.0258553  50.8493833  12.7571673  44.6788553  49.7243833  13.1911673
  44.0248553  50.1483833  13.1081673  40.7788553  41.9933833   5.0591673
  41.5958553  41.8063833   5.3021673  40.3018553  41.3793833   5.4551673
  40.8288553  41.8753833   5.1541673  44.9828553  47.9743833   7.6691673
  45.3308553  47.1753833   7.6991673  45.6478553  48.4783833   7.4141673
  45.1328553  47.9303833   7.6361673  45.0398553  47.4233833   3.8801673
  45.3708553  46.7793833   4.3661673  45.2798553  47.2123833   3.0691673
  45.1238553  47.2973833   3.8321673  47.0078553  41.5543833  15.2191673
  46.1598553  41.4553833  15.0411673  47.0368553  42.2993833  15.6731673
  46.8868553  41.6503833  15.2601673  41.3758553  37.0873833   4.3251673
  41.0798553  37.5883833   3.6751673  42.2428553  37.1653833   4.2681673
  41.4598553  37.1733833   4.2211673  51.5658553  34.5143833  14.3331673
  51.4078553  35.2833833  13.9511673  50.7938553  34.2943833  14.6771673
  51.4278553  34.5953833  14.3281673  44.3548553  36.2293833   6.5481673
  44.4278553  37.0893833   6.6771673  44.3168553  36.1543833   5.6801673
  44.3598553  36.3453833   6.4391673  37.2338553  41.6543833   8.0491673
  36.9778553  42.4853833   7.9741673  36.5698553  41.2713833   8.4661673
  37.0978553  41.7203833   8.1001673  37.1438553  51.3643833   5.9491673
  36.5518553  51.9223833   5.6361673  37.5698553  51.0953833   5.2371673
  37.1198553  51.4063833   5.7981673  42.9838553  49.2083833   3.4291673
  42.4048553  48.9333833   4.0211673  43.6078553  48.5993833   3.4541673
  42.9908553  49.0783833   3.5201673  47.2948553  51.8883833   2.9411673
  47.5088553  52.4153833   3.6031673  48.0618553  51.7143833   2.5621673
  47.4398553  51.9403833   2.9831673  40.2628553  36.4713833   8.5401673
  39.7418553  35.8433833   8.2321673  40.8538553  36.0343833   9.0111673
  40.2738553  36.3133833   8.5641673  43.5688553  38.6043833  17.8381673
  43.6858553  38.1503833  17.1021673  43.8568553  39.4023833  17.6351673
  43.6288553  38.6553833  17.6991673  38.6888553  50.0343833   3.8801673
  39.3448553  49.4593833   3.8951673  39.0778553  50.7833833   3.6591673
  38.8438553  50.0593833   3.8501673  54.4218553  39.1283833   5.1421673
  54.0758553  39.8063833   5.5681673  53.7858553  38.5303833   5.1581673
  54.2768553  39.1403833   5.2071673  49.7338553  51.8983833  11.2461673
  50.4778553  52.3543833  11.2361673  49.6128553  51.6843833  10.4091673
  49.8258553  51.9343833  11.1211673  39.3018553  38.2013833  16.8221673
  38.5238553  37.8113833  16.7501673  39.7928553  37.7893833  16.2311673
  39.2588553  38.0823833  16.7241673  39.5068553  48.5213833   7.3801673
  39.9298553  48.1653833   6.7061673  39.8308553  48.0993833   8.0721673
  39.6168553  48.4063833   7.3831673  42.7378553  51.3733833   6.6761673
  43.5818553  51.4773833   6.4811673  42.4408553  52.1913833   6.7441673
  42.8188553  51.5093833   6.6571673  45.9508553  35.8443833  15.9901673
  46.1288553  35.0353833  15.7151673  45.8078553  36.2853833  15.2511673
  45.9558553  35.7903833  15.8401673  46.5448553  40.7703833   4.7631673
  46.8318553  40.5383833   3.9731673  47.2768553  40.8493833   5.2321673
  46.6948553  40.7473833   4.7161673  41.7358553  52.5923833  12.4161673
  42.0278553  52.5253833  13.2361673  41.1098553  51.9873833  12.3711673
  41.6868553  52.4933833  12.5311673  54.0968553  37.4513833  10.5111673
  54.8538553  37.5233833  10.0831673  54.1598553  36.6783833  10.9101673
  54.2178553  37.3483833  10.5061673  36.6498553  38.7493833  14.4081673
  36.6458553  39.3363833  15.0541673  37.2438553  39.0613833  13.8511673
  36.7368553  38.8823833  14.4211673  48.9878553  49.0833833  14.9501673
  48.9538553  49.4653833  15.7341673  49.8418553  49.0413833  14.7791673
  49.1088553  49.1333833  15.0411673  37.5868553  38.3443833   3.3231673
  37.4728553  37.4803833   3.3541673  37.1118553  38.6383833   3.9931673
  37.4998553  38.2603833   3.4261673  39.7288553  50.7543833  11.5381673
  39.0308553  50.2463833  11.6641673  39.9888553  50.5493833  10.7301673
  39.6638553  50.6493833  11.4371673  46.8908553  39.5523833   2.0681673
  46.3828553  38.8903833   1.8141673  46.9428553  40.0563833   1.3581673
  46.8238553  39.5293833   1.9261673  47.4398553  52.2473833  12.4481673
  48.2078553  52.1673833  12.0421673  46.8568553  52.1263833  11.8101673
  47.4668553  52.2173833  12.2941673  46.8908553  36.4933833   1.9591673
  46.4358553  36.0913833   1.3331673  47.6638553  36.6483833   1.5841673
  46.9378553  36.4573833   1.8111673  53.7168553  52.8503833   5.3491673
  53.2618553  53.5673833   5.5501673  53.1028553  52.2793833   5.1071673
  53.5588553  52.8723833   5.3431673  45.4888553  38.8603833   6.4811673
  45.5628553  39.4283833   5.8231673  45.6098553  39.3523833   7.1911673
  45.5168553  39.0173833   6.4891673  50.7138553  48.6953833   4.8931673
  51.4148553  48.2133833   5.0821673  50.0538553  48.1263833   4.9381673
  50.7198553  48.5403833   4.9271673  41.0898553  49.6053833  14.1051673
  41.9308553  49.6683833  13.8831673  41.0528553  50.0023833  14.8811673
  41.2088553  49.6733833  14.1871673  40.0968553  34.6833833   4.8291673
  40.6328553  35.3713833   4.8191673  40.0998553  34.4093833   4.0011673
  40.1758553  34.7443833   4.7051673  43.0528553  45.1163833   8.8541673
  43.2248553  44.9063833   9.6831673  42.3978553  44.5823833   8.6381673
  42.9818553  45.0063833   8.9451673  49.2808553  39.0303833  12.3691673
  49.1858553  39.3493833  13.1751673  48.6878553  38.3913833  12.3311673
  49.1788553  38.9823833  12.4831673  43.8028553  45.0543833  11.4441673
  43.8558553  45.9013833  11.6461673  43.5178553  44.6843833  12.1811673
  43.7688553  45.1243833  11.5821673  49.9798553  45.7493833  10.5741673
  49.4658553  45.3373833  11.1451673  49.8538553  46.5933833  10.7551673
  49.8858553  45.8133833  10.6851673  50.5368553  34.9743833   5.2051673
  50.5858553  34.6563833   6.0161673  50.8598553  34.3303833   4.7121673
  50.5918553  34.8323833   5.2521673  36.6238553  49.4253833  17.6551673
  37.3798553  49.7743833  17.9131673  36.8008553  48.5723833  17.5981673
  36.7618553  49.3503833  17.6851673  53.0008553  39.2103833  13.5131673
  53.7728553  38.9853833  13.8501673  52.5258553  39.4273833  14.2131673
  53.0448553  39.2093833  13.6661673  40.5448553  38.4933833   6.4831673
  40.8168553  38.0633833   5.7751673  40.3688553  37.8573833   7.0541673
  40.5588553  38.3363833   6.4631673  40.3688553  45.9203833   6.0321673
  41.2198553  45.8403833   5.8591673  40.0118553  45.2383833   5.6201673
  40.4418553  45.8073833   5.9451673  39.1358553  52.6453833   7.2691673
  38.4628553  52.1473833   7.0241673  39.5388553  52.8303833   6.5181673
  39.0958553  52.5993833   7.1221673  38.6858553  39.5953833   9.5651673
  39.5288553  39.8153833   9.5221673  38.2968553  40.1683833   9.0341673
  38.7528553  39.7123833   9.4801673  55.4668553  50.6973833  14.9551673
  54.7848553  51.0073833  14.5081673  55.0978553  50.2393833  15.6001673
  55.3108553  50.6753833  14.9841673  42.7368553  45.9273833   4.2671673
  43.4498553  46.4223833   4.3571673  42.9588553  45.3603833   3.6411673
  42.8748553  45.9163833   4.1881673  36.8928553  47.5703833   7.5871673
  36.2258553  48.0583833   7.8631673  37.5728553  48.1153833   7.6161673
  36.8948553  47.7223833   7.6321673  44.5398553  41.2803833  17.6831673
  44.0558553  41.8573833  18.1251673  44.5118553  41.5753833  16.8621673
  44.4638553  41.4093833  17.6271673  55.6378553  41.9643833  12.2951673
  55.8528553  41.1643833  12.0191673  54.7878553  42.0243833  12.1061673
  55.5438553  41.8553833  12.2261673  36.9588553  44.2543833   2.6901673
  36.7738553  43.4153833   2.8421673  37.6178553  44.2183833   2.1201673
  37.0288553  44.1253833   2.6281673  53.3168553  37.1443833   2.0181673
  54.0628553  36.7373833   2.2171673  53.5798553  37.8593833   1.5931673
  53.4658553  37.1903833   1.9851673  47.2598553  49.6303833   6.5941673
  46.7368553  50.2643833   6.3011673  47.5698553  49.2663833   5.8651673
  47.2278553  49.6703833   6.4431673  37.1308553  48.4183833   2.2651673
  37.6828553  48.9873833   2.6291673  36.8988553  47.9033833   2.9301673
  37.1778553  48.4263833   2.4171673  41.3348553  47.4183833   9.3541673
  41.8018553  47.7073833  10.0321673  41.9068553  46.9403833   8.9001673
  41.4888553  47.3903833   9.3871673  49.7708553  39.4323833   7.0911673
  50.1148553  39.5843833   7.8781673  49.3178553  38.6943833   7.2041673
  49.7548553  39.3453833   7.2241673  37.9008553  45.0883833   7.8981673
  38.3318553  44.9593833   7.1511673  37.6958553  45.9363833   7.8721673
  37.9338553  45.1943833   7.7841673  53.3008553  51.0793833  13.0451673
  52.6298553  51.5933833  13.2631673  53.3638553  51.1793833  12.1811673
  53.2108553  51.1703833  12.9501673  41.9848553  48.6043833   6.1801673
  42.1108553  49.4473833   6.3671673  42.6528553  48.2053833   6.5761673
  42.1028553  48.6703833   6.2661673  40.1148553  42.0873833  16.0421673
  39.5788553  41.5813833  16.5101673  40.1348553  41.6973833  15.2621673
  40.0378553  41.9543833  15.9961673  40.7668553  43.3143833   7.7811673
  39.9858553  43.2553833   7.3981673  40.8388553  42.5623833   8.2181673
  40.6618553  43.1953833   7.7891673  41.1968553  43.0513833  11.2491673
  41.2218553  42.3763833  10.6981673  40.5508553  43.5473833  10.9371673
  41.1058553  43.0243833  11.1221673  51.0918553  40.7643833   9.6451673
  50.4298553  41.0923833  10.1081673  51.2788553  41.3983833   9.0761673
  51.0218553  40.9063833   9.6291673  45.2968553  51.8283833  10.6411673
  45.0198553  51.1873833  10.1181673  45.0888553  52.5543833  10.2031673
  45.2258553  51.8413833  10.4991673  47.7368553  36.6703833  13.0741673
  47.8858553  35.8453833  12.8311673  48.1158553  36.7253833  13.8581673
  47.8148553  36.5563833  13.1541673  49.2848553  38.7333833   3.1561673
  49.7748553  39.4503833   3.0791673  48.4948553  38.9943833   2.8931673
  49.2408553  38.8773833   3.1061673  38.9958553  44.4063833  16.8081673
  38.9588553  44.9073833  16.0941673  39.3268553  43.6543833  16.5131673
  39.0388553  44.3683833  16.6591673  50.5988553  46.6113833  15.0661673
  51.0828553  47.3293833  15.1641673  50.9928553  46.1843833  14.4151673
  50.7288553  46.6543833  14.9841673  44.8948553  49.4563833  16.2431673
  45.2488553  49.2783833  17.0201673  44.4588553  48.7273833  16.0441673
  44.8828553  49.3223833  16.3291673  45.8668553  40.2033833   8.8811673
  46.3468553  40.9023833   9.0891673  46.2398553  39.5563833   9.3321673
  45.9928553  40.2113833   8.9781673  53.0278553  47.2423833   5.1361673
  53.3838553  46.8923833   5.8511673  53.0198553  46.5813833   4.5661673
  53.0798553  47.0923833   5.1571673  49.0728553  50.3083833   8.9801673
  48.4698553  50.0123833   8.4231673  49.6178553  50.7603833   8.4711673
  49.0638553  50.3313833   8.8221673  49.0858553  47.1593833   8.3801673
  48.2888553  47.3833833   8.6541673  49.3438553  46.5653833   8.9651673
  49.0058553  47.1043833   8.5071673  42.9778553  51.9713833   2.8281673
  42.8308553  51.1953833   3.1991673  43.6668553  51.8243833   2.3131673
  43.0578553  51.8343833   2.8071673  52.3458553  45.1573833  13.2261673
  52.4008553  45.2823833  12.3641673  53.0988553  45.4773833  13.5281673
  52.4648553  45.2223833  13.1431673  48.5368553  50.5063833  17.5031673
  48.7008553  50.7893833  18.3121673  48.7998553  51.1673833  16.9981673
  48.5998553  50.6463833  17.5481673  53.3778553  35.4553833  16.2131673
  52.7408553  35.0553833  15.7711673  53.4038553  35.0243833  16.9711673
  53.2878553  35.3333833  16.2591673  39.7708553  44.0213833   2.0591673
  40.0948553  43.2423833   1.8371673  40.4168553  44.3893833   2.5141673
  39.9138553  43.9603833   2.0931673  48.0768553  44.9633833  12.8261673
  47.9218553  45.5733833  13.4301673  48.6108553  44.4053833  13.2321673
  48.1328553  44.9713833  12.9751673  36.7678553  35.6823833   3.0271673
  36.8968553  34.9743833   2.5351673  36.4008553  35.3643833   3.7521673
  36.7328553  35.5303833   3.0621673  46.4608553  43.3633833   3.4841673
  46.5198553  44.0133833   4.0631673  46.2718553  42.6673833   3.9751673
  46.4418553  43.3563833   3.6421673  51.6868553  47.6923833   9.3531673
  51.2078553  47.9903833   8.6871673  51.3308553  46.9163833   9.5311673
  51.5638553  47.6213833   9.2811673  45.6838553  45.4103833   7.9151673
  44.8368553  45.2163833   7.9961673  46.0078553  45.2453833   8.7081673
  45.6058553  45.3573833   8.0441673  39.5318553  45.1033833  10.2311673
  40.2538553  45.5913833  10.1941673  39.2618553  45.0733833   9.4021673
  39.5988553  45.1713833  10.1031673  42.7618553  40.2743833   6.9661673
  43.6078553  40.0843833   7.0641673  42.3918553  39.4973833   6.8281673
  42.8318553  40.1313833   6.9601673  37.5828553  41.6123833   3.6211673
  38.0718553  41.3203833   4.2821673  37.7118553  41.0193833   2.9941673
  37.6738553  41.4813833   3.6261673  52.6178553  44.6343833  10.4721673
  52.6108553  43.8583833  10.8701673  51.7768553  44.8683833  10.4651673
  52.4928553  44.5543833  10.5301673  38.9268553  46.1553833  14.5091673
  38.5058553  45.6373833  13.9481673  38.5748553  46.9413833  14.3661673
  38.8128553  46.1953833  14.4051673  53.8738553  44.7053833   7.9091673
  53.5878553  45.1063833   8.6291673  54.7338553  44.6433833   8.0361673
  53.9588553  44.7553833   8.0341673  43.5628553  41.5073833   1.8171673
  43.8348553  42.3333833   1.8841673  42.6998553  41.5823833   1.7211673
  43.4758553  41.6403833   1.8121673  51.5358553  38.6293833  16.4491673
  51.0108553  39.0883833  16.9731673  51.1748553  37.8343833  16.4431673
  51.4048553  38.5793833  16.5251673  37.0428553  37.4773833   8.3531673
  37.0868553  37.8213833   7.5521673  37.7978553  37.7143833   8.7201673
  37.1608553  37.5633833   8.2891673  55.0048553  50.3383833   8.4381673
  55.2948553  50.5953833   7.6571673  55.6998553  50.4343833   8.9571673
  55.1508553  50.3903833   8.3991673  50.0278553  42.1983833  16.5251673
  50.1008553  42.3023833  17.3881673  49.3938553  42.7563833  16.3041673
  49.9448553  42.2963833  16.6201673  52.2958553  42.5173833  14.8901673
  52.6148553  43.3033833  15.0931673  51.9258553  42.2473833  15.6331673
  52.2888553  42.5933833  15.0301673  52.0918553  40.7753833   6.0791673
  51.3468553  40.4523833   6.3971673  52.0938553  41.6013833   6.3591673
  51.9818553  40.8493833   6.1671673  54.9938553  43.0593833  17.6251673
  54.9418553  42.7183833  16.8241673  55.7308553  43.5263833  17.6031673
  55.0948553  43.0783833  17.5031673  54.5318553  46.7353833  13.8311673
  55.1598553  46.1863833  13.5751673  54.4708553  47.3003833  13.1691673
  54.6158553  46.7383833  13.6951673  43.6658553  47.9663833  11.1271673
  43.3678553  48.5583833  11.6941673  43.7208553  48.4083833  10.3781673
  43.6298553  48.1193833  11.1001673  41.6448553  46.9163833  14.5251673
  40.8388553  46.6263833  14.6921673  41.5558553  47.7843833  14.5311673
  41.5128553  47.0013833  14.5501673  51.0038553  37.1053833  13.5401673
  51.7478553  37.5573833  13.4771673  50.4378553  37.5753833  13.0711673
  51.0308553  37.2423833  13.4621673  46.1818553  44.3893833  10.6181673
  46.6578553  44.7633833  11.2461673  45.3588553  44.5233833  10.8771673
  46.1308553  44.4643833  10.7491673  42.8918553  39.9923833  13.3591673
  43.0528553  39.2483833  13.7861673  42.8468553  39.7433833  12.5241673
  42.9088553  39.8453833  13.2991673  45.4458553  51.7823833   5.8461673
  45.9918553  52.4613833   5.9001673  45.0958553  51.8643833   5.0511673
  45.4748553  51.8953833   5.7361673  52.2888553  35.0853833  11.2101673
  52.0088553  35.9103833  11.1661673  53.0048553  35.1383833  11.7061673
  52.3538553  35.2153833  11.2771673  44.6438553  35.8003833  13.2391673
  45.3488553  36.1203833  12.8371673  44.8848553  34.9933833  13.4661673
  44.7828553  35.7283833  13.2131673  43.6288553  50.0103833   9.2351673
  43.0048553  50.5923833   9.0531673  43.8768553  49.7243833   8.4491673
  43.5728553  50.0543833   9.0921673  47.9378553  46.6443833  16.2241673
  48.6948553  46.9303833  15.8981673  47.3908553  46.6963833  15.5461673
  47.9688553  46.6943833  16.0751673  51.8468553  49.1943833  14.7281673
  52.1928553  49.4643833  15.4821673  52.1408553  49.7763833  14.1481673
  51.9418553  49.3203833  14.7541673  41.1528553  40.8533833   9.3001673
  41.5928553  40.7503833   8.5541673  41.6978553  40.5403833   9.9051673
  41.2978553  40.7923833   9.2791673  49.1688553  39.9553833  14.8921673
  48.5208553  40.4253833  15.2401673  49.7338553  39.8663833  15.5511673
  49.1568553  40.0113833  15.0411673  48.8568553  41.4923833  11.1901673
  49.1588553  41.9123833  11.8931673  48.8928553  40.6523833  11.4221673
  48.9068553  41.4303833  11.3281673  46.2818553  51.6593833  15.1151673
  46.7598553  51.0593833  14.6991673  45.9308553  51.2163833  15.7801673
  46.3008553  51.5053833  15.1521673  51.4048553  40.9393833   3.4421673
  51.6118553  40.7383833   4.2661673  52.1608553  41.2073833   3.1001673
  51.5468553  40.9493833   3.5131673  44.6998553  35.8383833   9.3471673
  43.8738553  35.6893833   9.5841673  44.6598553  35.8733833   8.4761673
  44.5718553  35.8213833   9.2531673  52.4268553  37.0223833   4.9161673
  51.7128553  36.5513833   5.0871673  52.2648553  37.3633833   4.1301673
  52.2978553  37.0033833   4.8251673  52.8698553  44.9663833   3.2961673
  53.3458553  44.2373833   3.2481673  52.0488553  44.6803833   3.2201673
  52.8188553  44.8163833   3.2771673  46.3408553  46.8783833  14.1351673
  45.5458553  46.8143833  14.4861673  46.4118553  47.7253833  13.9401673
  46.2338553  46.9933833  14.1581673  37.2648553  36.2363833  15.3821673
  37.1248553  37.0313833  15.0511673  36.4788553  35.9933833  15.6711673
  37.1278553  36.3183833  15.3761673  42.1708553  53.0853833   9.4521673
  42.1818553  53.1443833  10.3221673  41.7458553  52.3383833   9.3021673
  42.1098553  52.9833833   9.5581673  40.3288553  38.9803833   2.6071673
  40.4548553  38.6513833   1.8091673  39.5168553  38.7313833   2.8061673
  40.2278553  38.8953833   2.5191673  49.0858553  46.1333833   5.6511673
  49.1618553  46.4743833   6.4501673  49.2548553  45.2863833   5.7721673
  49.1218553  46.0583833   5.7871673  46.6078553  45.4073833   5.2161673
  46.3098553  45.0923833   5.9731673  47.3028553  45.8803833   5.4511673
  46.6668553  45.4303833   5.3631673  46.8298553  49.5253833  13.2431673
  47.5168553  49.4113833  13.7681673  46.9638553  50.3163833  12.8991673
  46.9508553  49.6253833  13.2701673  55.0058553  42.1343833  15.0541673
  54.1508553  42.0123833  15.1801673  55.1588553  41.7393833  14.2911673
  54.9018553  42.0573833  14.9601673  49.5188553  42.7993833  13.6301673
  49.2638553  42.0803833  14.0521673  50.3398553  42.9153833  13.9001673
  49.6028553  42.7103833  13.7321673  38.9348553  52.5833833  14.8941673
  38.2808553  52.0143833  14.9921673  38.5598553  53.3563833  15.0451673
  38.7828553  52.6133833  14.9311673  47.4528553  43.9893833  16.8171673
  47.7758553  44.6753833  16.3851673  46.7488553  44.3123833  17.2191673
  47.3958553  44.1383833  16.8121673  50.5368553  52.3633833   7.7461673
  50.0858553  53.0063833   8.1251673  51.2448553  52.2843833   8.2511673
  50.5748553  52.4463833   7.8771673  47.2378553  47.4533833  10.6761673
  46.5438553  47.8553833  11.0191673  47.9148553  47.8863833  11.0151673
  47.2348553  47.5763833  10.7771673  52.6148553  50.0463833  17.2561673
  53.3908553  49.6563833  17.3391673  52.1458553  49.7103833  17.9111673
  52.6598553  49.9393833  17.3651673  40.3058553  40.9913833  13.0231673
  40.6808553  41.6103833  12.5361673  40.9798553  40.5173833  13.3081673
  40.4608553  41.0133833  12.9931673  38.0808553  39.4393833  12.2981673
  38.1578553  39.2703833  11.4451673  38.8268553  39.8453833  12.4951673
  38.2018553  39.4743833  12.2011673  53.6398553  42.0793833   2.7381673
  53.7428553  42.0213833   1.8741673  54.3808553  41.7473833   3.0561673
  53.7648553  42.0223833   2.6571673  40.6348553  36.8493833  14.7091673
  40.5538553  36.0053833  14.9151673  40.3208553  36.8933833  13.8961673
  40.5768553  36.7313833  14.6191673  47.5598553  49.0443833   3.8451673
  47.3548553  49.8773833   3.6861673  46.7848553  48.6623833   3.9671673
  47.4148553  49.1113833   3.8401673  52.7418553  42.2253833  12.0941673
  52.7398553  41.3623833  12.2181673  52.8088553  42.5493833  12.9011673
  52.7518553  42.1453833  12.2311673  37.4778553  44.6653833  12.5221673
  37.7978553  44.8843833  11.7411673  37.3778553  43.8003833  12.4671673
  37.5098553  44.5703833  12.3991673  48.6208553  37.0253833  15.8761673
  48.7128553  37.7373833  16.3701673  47.9838553  36.5803833  16.2731673
  48.5398553  37.0643833  16.0081673  47.6148553  37.2153833   6.7301673
  46.9148553  37.7333833   6.6741673  47.6528553  36.8353833   5.9461673
  47.5168553  37.2363833   6.6061673  51.2128553  37.7313833   9.5301673
  52.0678553  37.8303833   9.6751673  50.8438553  38.2843833  10.0951673
  51.2848553  37.8283833   9.6351673  42.2408553  43.9573833  13.9071673
  41.8448553  44.7313833  13.9821673  41.8348553  43.5843833  13.2311673
  42.1228553  44.0163833  13.8181673  51.5168553  43.0113833   8.0211673
  52.1828553  43.5523833   8.1811673  51.1718553  43.3223833   7.2821673
  51.5638553  43.1373833   7.9361673  51.8298553  51.0773833   3.8281673
  51.6558553  50.4233833   4.3781673  52.5428553  50.8063833   3.4051673
  51.9098553  50.9403833   3.8471673  42.6698553  36.9343833  11.3571673
  41.8058553  37.0183833  11.4371673  42.8898553  36.4203833  12.0261673
  42.5748553  36.8713833  11.4681673  54.6878553  35.5693833  12.6861673
  54.6358553  35.5253833  13.5561673  55.3748553  35.0663833  12.4961673
  54.7818553  35.4893833  12.7861673  46.7728553  37.6823833   9.7311673
  46.0358553  37.2283833   9.8441673  47.3438553  37.2803833  10.2541673
  46.7478553  37.5553833   9.8251673  49.5048553  48.5303833  11.5191673
  49.7108553  48.8313833  12.3111673  49.4438553  49.2523833  11.0341673
  49.5258553  48.6813833  11.5641673  49.0388553  52.7443833  15.7651673
  48.2858553  52.7263833  15.3241673  49.2068553  53.5963833  15.8491673
  48.9528553  52.8673833  15.7121673  44.2758553  42.0113833  14.9351673
  43.9538553  41.4353833  14.3651673  43.9168553  42.7663833  14.6891673
  44.1758553  42.0373833  14.8151673  54.3168553  47.1693833  10.9771673
  54.2848553  46.3073833  10.8421673  53.6238553  47.4713833  10.5431673
  54.2098553  47.0863833  10.8931673  42.7108553  52.3673833  15.1831673
  42.7518553  52.4933833  16.0461673  43.3618553  51.8073833  15.0271673
  42.8128553  52.3033833  15.2881673  52.4218553  50.4293833   9.7741673
  52.9488553  50.3463833   9.0831673  52.0308553  49.6513833   9.8281673
  52.4418553  50.3023833   9.6801673  39.8898553  37.0173833  12.0051673
  39.5468553  36.2503833  11.7711673  39.1948553  37.5413833  12.0691673
  39.7368553  36.9813833  11.9801673  48.9358553  35.8733833   8.9821673
  49.6058553  36.4173833   9.1091673  48.4328553  36.2973833   8.4091673
  48.9608553  36.0163833   8.9161673  40.3038553  50.7503833  16.5431673
  40.8988553  51.1813833  17.0151673  39.9398553  51.3743833  16.0541673
  40.3378553  50.9063833  16.5401673  48.2948553  41.6813833   6.4751673
  48.8458553  41.0743833   6.7751673  47.8698553  41.9443833   7.1901673
  48.3138553  41.6303833   6.6241673  38.5428553  40.3313833   5.9611673
  38.1748553  40.6333833   6.6921673  39.0768553  39.7023833   6.2451673
  38.5668553  40.2833833   6.1111673  38.2308553  48.7393833  13.4721673
  37.6568553  49.1553833  13.9811673  38.9638553  49.2043833  13.5671673
  38.2548553  48.8693833  13.5611673  50.2648553  43.5123833   3.0371673
  50.3328553  42.6623833   3.2181673  49.4418553  43.5983833   2.7591673
  50.1528553  43.3993833   3.0231673  40.0168553  52.0063833   2.2471673
  39.8718553  52.1623833   1.4011673  40.8828553  52.0853833   2.3251673
  40.1238553  52.0413833   2.1341673  53.5388553  44.8853833  16.1881673
  54.1728553  44.7153833  16.7621673  53.9558553  45.2883833  15.5361673
  53.6938553  44.9203833  16.1771673  49.4188553  48.7323833   1.7771673
  49.1678553  48.6043833   2.6031673  49.1018553  48.0373833   1.3561673
  49.3348553  48.6113833   1.8371673  54.1638553  39.4493833  16.9261673
  53.9678553  40.0933833  17.4811673  53.4418553  38.9593833  16.9181673
  54.0288553  39.4723833  17.0071673  54.0628553  40.3903833   9.8971673
  53.2298553  40.6403833   9.8251673  54.0068553  39.5503833  10.1261673
  53.9318553  40.3033833   9.9201673  43.3228553  37.3783833  15.0911673
  43.5568553  36.8023833  14.4781673  42.4808553  37.1973833  15.2321673
  43.2328553  37.2663833  15.0211673  50.9498553  44.9963833  17.5431673
  51.8208553  44.9603833  17.5071673  50.7308553  45.4163833  16.8111673
  51.0468553  45.0523833  17.4301673  40.7038553  50.8213833   8.7241673
  40.6248553  50.0113833   8.4081673  40.2598553  51.3083833   8.1521673
  40.6268553  50.7733833   8.5931673  38.2758553  53.0653833  12.3051673
  38.7688553  53.0093833  13.0231673  38.4638553  52.3323833  11.8701673
  38.3768553  52.9483833  12.3471673  47.7138553  17.1032753  80.4771313
  47.4688553  17.5912753  79.7971313  48.5768553  17.0302753  80.3771313
  47.8048553  17.1642753  80.3621313  47.5228553  24.0192753  85.1481313
  46.9988553  24.6152753  85.5111313  47.9198553  23.6512753  85.8321313
  47.5038553  24.0532753  85.3031313  37.3918553  28.1592753  80.6041313
  36.9508553  28.2772753  81.3471313  37.1088553  27.3842753  80.3191313
  37.2848553  28.0622753  80.6721313  53.6668553  31.4602753  78.1191313
  54.3678553  30.9412753  78.1151313  53.0798553  31.0152753  77.6501313
  53.6838553  31.3172753  78.0491313  37.1348553  21.9512753  77.1111313
  36.3568553  22.1132753  76.7511313  37.1738553  21.0802753  77.1331313
  37.0258553  21.8462753  77.0611313  40.2738553  27.2142753  75.7831313
  39.8818553  26.8432753  75.0971313  40.1938553  26.6162753  76.4121313
  40.2038553  27.0712753  75.7741313  50.1938553  25.0862753  81.8241313
  50.2738553  25.0902753  80.9551313  49.6098553  24.4542753  81.9731313
  50.1188553  24.9932753  81.7181313  39.9008553  28.8552753  79.6831313
  40.5088553  28.6852753  80.2861313  39.1498553  28.7152753  80.1041313
  39.8798553  28.8092753  79.8341313  44.1828553  18.1902753  79.6321313
  44.1128553  18.8672753  79.0861313  44.9238553  17.8022753  79.3831313
  44.2818553  18.2332753  79.5141313  38.7918553  31.9462753  75.7601313
  39.2588553  32.0302753  75.0281313  39.2468553  31.3682753  76.2291313
  38.9278553  31.8732753  75.7211313  37.3318553  30.8942753  86.8591313
  37.4608553  30.6142753  87.6751313  36.7218553  30.3532753  86.5501313
  37.2608553  30.7732753  86.9341313  38.7778553  25.4152753  81.0611313
  38.3158553  25.0232753  80.4341313  39.4778553  24.9022753  81.1531313
  38.8128553  25.2822753  80.9821313  43.2858553  21.0252753  86.4081313
  43.9638553  21.0432753  85.8591313  43.2408553  20.1892753  86.6531313
  43.3788553  20.9042753  86.3631313  43.8878553  31.6112753  89.1891313
  44.0258553  32.3712753  88.7821313  44.6788553  31.2462753  89.2161313
  44.0248553  31.6702753  89.1331313  40.7788553  23.5152753  81.0841313
  41.5958553  23.3282753  81.3271313  40.3018553  22.9012753  81.4801313
  40.8288553  23.3972753  81.1791313  44.9828553  29.4962753  83.6941313
  45.3308553  28.6972753  83.7241313  45.6478553  30.0002753  83.4391313
  45.1328553  29.4522753  83.6611313  45.0398553  28.9452753  79.9051313
  45.3708553  28.3012753  80.3911313  45.2798553  28.7342753  79.0941313
  45.1238553  28.8192753  79.8571313  41.3758553  18.6092753  80.3501313
  41.0798553  19.1102753  79.7001313  42.2428553  18.6872753  80.2931313
  41.4598553  18.6952753  80.2461313  51.5658553  16.0362753  90.3581313
  51.4078553  16.8052753  89.9761313  50.7938553  15.8162753  90.7021313
  51.4278553  16.1172753  90.3531313  44.3548553  17.7512753  82.5731313
  44.4278553  18.6112753  82.7021313  44.3168553  17.6762753  81.7051313
  44.3598553  17.8672753  82.4641313  49.0278553  20.6772753  74.8721313
  48.5778553  21.3582753  75.1791313  49.1418553  20.1732753  75.5751313
  48.9788553  20.7032753  75.0211313  37.2338553  23.1762753  84.0741313
  36.9778553  24.0072753  83.9991313  36.5698553  22.7932753  84.4911313
  37.0978553  23.2422753  84.1251313  37.1438553  32.8862753  81.9741313
  36.5518553  33.4442753  81.6611313  37.5698553  32.6172753  81.2621313
  37.1198553  32.9282753  81.8231313  42.9838553  30.7302753  79.4541313
  42.4048553  30.4552753  80.0461313  43.6078553  30.1212753  79.4791313
  42.9908553  30.6002753  79.5451313  49.1268553  33.0182753  76.9761313
  49.8538553  33.4902753  77.0781313  49.3558553  32.2242753  77.2561313
  49.2688553  32.9712753  77.0331313  47.2948553  33.4102753  78.9661313
  47.5088553  33.9372753  79.6281313  48.0618553  33.2362753  78.5871313
  47.4398553  33.4622753  79.0081313  40.2628553  17.9932753  84.5651313
  39.7418553  17.3652753  84.2571313  40.8538553  17.5562753  85.0361313
  40.2738553  17.8352753  84.5891313  38.6888553  31.5562753  79.9051313
  39.3448553  30.9812753  79.9201313  39.0778553  32.3052753  79.6841313
  38.8438553  31.5812753  79.8751313  54.4218553  20.6502753  81.1671313
  54.0758553  21.3282753  81.5931313  53.7858553  20.0522753  81.1831313
  54.2768553  20.6622753  81.2321313  49.7338553  33.4202753  87.2711313
  50.4778553  33.8762753  87.2611313  49.6128553  33.2062753  86.4341313
  49.8258553  33.4562753  87.1461313  39.5068553  30.0432753  83.4051313
  39.9298553  29.6872753  82.7311313  39.8308553  29.6212753  84.0971313
  39.6168553  29.9282753  83.4081313  42.7378553  32.8952753  82.7011313
  43.5818553  32.9992753  82.5061313  42.4408553  33.7132753  82.7691313
  42.8188553  33.0312753  82.6821313  46.5448553  22.2922753  80.7881313
  46.8318553  22.0602753  79.9981313  47.2768553  22.3712753  81.2571313
  46.6948553  22.2692753  80.7411313  47.2668553  22.6312753  75.9091313
  47.5478553  23.4192753  76.1581313  46.4908553  22.7962753  75.5461313
  47.1938553  22.7722753  75.8921313  51.3078553  34.6052753  77.3761313
  51.9728553  34.4572753  76.8311313  51.6678553  34.5222753  78.1661313
  51.4598553  34.5712753  77.4121313  41.7358553  34.1142753  88.4411313
  42.0278553  34.0472753  89.2611313  41.1098553  33.5092753  88.3961313
  41.6868553  34.0152753  88.5561313  54.0968553  18.9732753  86.5361313
  54.8538553  19.0452753  86.1081313  54.1598553  18.2002753  86.9351313
  54.2178553  18.8702753  86.5311313  36.6498553  20.2712753  90.4331313
  36.6458553  20.8582753  91.0791313  37.2438553  20.5832753  89.8761313
  36.7368553  20.4042753  90.4461313  46.1258553  30.8022753  75.7251313
  45.9448553  31.3472753  76.3821313  46.8918553  31.0922753  75.4241313
  46.2118553  30.9262753  75.7781313  49.6328553  18.6982753  76.7791313
  50.1728553  18.0162753  76.8551313  49.6948553  19.0962753  77.5531313
  49.7218553  18.6562753  76.9051313  37.5868553  19.8662753  79.3481313
  37.4728553  19.0022753  79.3791313  37.1118553  20.1602753  80.0181313
  37.4998553  19.7822753  79.4511313  39.7288553  32.2762753  87.5631313
  39.0308553  31.7682753  87.6891313  39.9888553  32.0712753  86.7551313
  39.6638553  32.1712753  87.4621313  46.8908553  21.0742753  78.0931313
  46.3828553  20.4122753  77.8391313  46.9428553  21.5782753  77.3831313
  46.8238553  21.0512753  77.9511313  47.4398553  33.7692753  88.4731313
  48.2078553  33.6892753  88.0671313  46.8568553  33.6482753  87.8351313
  47.4668553  33.7392753  88.3191313  46.8908553  18.0152753  77.9841313
  46.4358553  17.6132753  77.3581313  47.6638553  18.1702753  77.6091313
  46.9378553  17.9792753  77.8361313  53.7168553  34.3722753  81.3741313
  53.2618553  35.0892753  81.5751313  53.1028553  33.8012753  81.1321313
  53.5588553  34.3942753  81.3681313  45.4888553  20.3822753  82.5061313
  45.5628553  20.9502753  81.8481313  45.6098553  20.8742753  83.2161313
  45.5168553  20.5392753  82.5141313  50.7138553  30.2172753  80.9181313
  51.4148553  29.7352753  81.1071313  50.0538553  29.6482753  80.9631313
  50.7198553  30.0622753  80.9521313  41.0898553  31.1272753  90.1301313
  41.9308553  31.1902753  89.9081313  41.0528553  31.5242753  90.9061313
  41.2088553  31.1952753  90.2121313  40.0968553  16.2052753  80.8541313
  40.6328553  16.8932753  80.8441313  40.0998553  15.9312753  80.0261313
  40.1758553  16.2662753  80.7301313  43.0528553  26.6382753  84.8791313
  43.2248553  26.4282753  85.7081313  42.3978553  26.1042753  84.6631313
  42.9818553  26.5282753  84.9701313  49.2808553  20.5522753  88.3941313
  49.1858553  20.8712753  89.2001313  48.6878553  19.9132753  88.3561313
  49.1788553  20.5042753  88.5081313  43.8028553  26.5762753  87.4691313
  43.8558553  27.4232753  87.6711313  43.5178553  26.2062753  88.2061313
  43.7688553  26.6462753  87.6071313  49.9798553  27.2712753  86.5991313
  49.4658553  26.8592753  87.1701313  49.8538553  28.1152753  86.7801313
  49.8858553  27.3352753  86.7101313  50.5368553  16.4962753  81.2301313
  50.5858553  16.1782753  82.0411313  50.8598553  15.8522753  80.7371313
  50.5918553  16.3542753  81.2771313  53.0008553  20.7322753  89.5381313
  53.7728553  20.5072753  89.8751313  52.5258553  20.9492753  90.2381313
  53.0448553  20.7312753  89.6911313  40.5448553  20.0152753  82.5081313
  40.8168553  19.5852753  81.8001313  40.3688553  19.3792753  83.0791313
  40.5588553  19.8582753  82.4881313  53.2328553  27.7102753  76.7261313
  53.3518553  27.4232753  77.5411313  54.0398553  27.7312753  76.3961313
  53.3688553  27.6712753  76.7981313  40.3688553  27.4422753  82.0571313
  41.2198553  27.3622753  81.8841313  40.0118553  26.7602753  81.6451313
  40.4418553  27.3292753  81.9701313  39.1358553  34.1672753  83.2941313
  38.4628553  33.6692753  83.0491313  39.5388553  34.3522753  82.5431313
  39.0958553  34.1212753  83.1471313  38.6858553  21.1172753  85.5901313
  39.5288553  21.3372753  85.5471313  38.2968553  21.6902753  85.0591313
  38.7528553  21.2342753  85.5051313  51.1278553  24.2472753  76.3111313
  50.9078553  24.9782753  75.8891313  50.6798553  24.2982753  77.0581313
  51.0288553  24.3622753  76.3591313  42.7368553  27.4492753  80.2921313
  43.4498553  27.9442753  80.3821313  42.9588553  26.8822753  79.6661313
  42.8748553  27.4382753  80.2131313  55.3148553  19.1082753  75.7641313
  54.6528553  18.5402753  75.7871313  55.1218553  19.6202753  75.0841313
  55.1888553  19.1002753  75.6671313  36.8928553  29.0922753  83.6121313
  36.2258553  29.5802753  83.8881313  37.5728553  29.6372753  83.6411313
  36.8948553  29.2442753  83.6571313  55.6378553  23.4862753  88.3201313
  55.8528553  22.6862753  88.0441313  54.7878553  23.5462753  88.1311313
  55.5438553  23.3772753  88.2511313  36.9588553  25.7762753  78.7151313
  36.7738553  24.9372753  78.8671313  37.6178553  25.7402753  78.1451313
  37.0288553  25.6472753  78.6531313  53.3168553  18.6662753  78.0431313
  54.0628553  18.2592753  78.2421313  53.5798553  19.3812753  77.6181313
  53.4658553  18.7122753  78.0101313  47.2598553  31.1522753  82.6191313
  46.7368553  31.7862753  82.3261313  47.5698553  30.7882753  81.8901313
  47.2278553  31.1922753  82.4681313  41.3348553  28.9402753  85.3791313
  41.8018553  29.2292753  86.0571313  41.9068553  28.4622753  84.9251313
  41.4888553  28.9122753  85.4121313  49.7708553  20.9542753  83.1161313
  50.1148553  21.1062753  83.9031313  49.3178553  20.2162753  83.2291313
  49.7548553  20.8672753  83.2491313  36.9608553  28.3892753  75.9181313
  37.7168553  27.9572753  75.9761313  36.9758553  28.9212753  76.6091313
  37.0748553  28.4042753  76.0291313  37.9008553  26.6102753  83.9231313
  38.3318553  26.4812753  83.1761313  37.6958553  27.4582753  83.8971313
  37.9338553  26.7162753  83.8091313  44.2468553  20.1742753  77.5731313
  44.2448553  20.0572753  76.7081313  44.0658553  21.0222753  77.6651313
  44.2198553  20.2822753  77.4591313  53.3008553  32.6012753  89.0701313
  52.6298553  33.1152753  89.2881313  53.3638553  32.7012753  88.2061313
  53.2108553  32.6922753  88.9751313  41.9848553  30.1262753  82.2051313
  42.1108553  30.9692753  82.3921313  42.6528553  29.7272753  82.6011313
  42.1028553  30.1922753  82.2911313  40.5998553  23.0062753  77.2071313
  40.4718553  22.5582753  77.9451313  40.0178553  22.6642753  76.6551313
  40.4948553  22.8892753  77.2351313  40.7668553  24.8362753  83.8061313
  39.9858553  24.7772753  83.4231313  40.8388553  24.0842753  84.2431313
  40.6618553  24.7172753  83.8141313  41.1968553  24.5732753  87.2741313
  41.2218553  23.8982753  86.7231313  40.5508553  25.0692753  86.9621313
  41.1058553  24.5462753  87.1471313  51.0918553  22.2862753  85.6701313
  50.4298553  22.6142753  86.1331313  51.2788553  22.9202753  85.1011313
  51.0218553  22.4282753  85.6541313  45.2968553  33.3502753  86.6661313
  45.0198553  32.7092753  86.1431313  45.0888553  34.0762753  86.2281313
  45.2258553  33.3632753  86.5241313  47.7368553  18.1922753  89.0991313
  47.8858553  17.3672753  88.8561313  48.1158553  18.2472753  89.8831313
  47.8148553  18.0782753  89.1791313  49.2848553  20.2552753  79.1811313
  49.7748553  20.9722753  79.1041313  48.4948553  20.5162753  78.9181313
  49.2408553  20.3992753  79.1311313  50.5988553  28.1332753  91.0911313
  51.0828553  28.8512753  91.1891313  50.9928553  27.7062753  90.4401313
  50.7288553  28.1762753  91.0091313  45.8668553  21.7252753  84.9061313
  46.3468553  22.4242753  85.1141313  46.2398553  21.0782753  85.3571313
  45.9928553  21.7332753  85.0031313  48.0558553  24.8942753  77.1801313
  48.0478553  25.6162753  76.6901313  47.4168553  25.0292753  77.7571313
  47.9608553  25.0212753  77.1931313  53.0278553  28.7642753  81.1611313
  53.3838553  28.4142753  81.8761313  53.0198553  28.1032753  80.5911313
  53.0798553  28.6142753  81.1821313  49.0728553  31.8302753  85.0051313
  48.4698553  31.5342753  84.4481313  49.6178553  32.2822753  84.4961313
  49.0638553  31.8532753  84.8471313  49.0858553  28.6812753  84.4051313
  48.2888553  28.9052753  84.6791313  49.3438553  28.0872753  84.9901313
  49.0058553  28.6262753  84.5321313  42.9778553  33.4932753  78.8531313
  42.8308553  32.7172753  79.2241313  43.6668553  33.3462753  78.3381313
  43.0578553  33.3562753  78.8321313  42.6488553  17.2362753  76.8411313
  42.7458553  17.1292753  77.7021313  41.9408553  17.7422753  76.7761313
  42.5588553  17.2952753  76.9591313  45.2698553  33.0092753  77.2551313
  45.8918553  33.1722753  77.8451313  45.3058553  33.7002753  76.7231313
  45.3668553  33.1352753  77.2641313  52.3458553  26.6792753  89.2511313
  52.4008553  26.8042753  88.3891313  53.0988553  26.9992753  89.5531313
  52.4648553  26.7442753  89.1681313  39.7708553  25.5432753  78.0841313
  40.0948553  24.7642753  77.8621313  40.4168553  25.9112753  78.5391313
  39.9138553  25.4822753  78.1181313  48.0768553  26.4852753  88.8511313
  47.9218553  27.0952753  89.4551313  48.6108553  25.9272753  89.2571313
  48.1328553  26.4932753  89.0001313  36.7678553  17.2042753  79.0521313
  36.8968553  16.4962753  78.5601313  36.4008553  16.8862753  79.7771313
  36.7328553  17.0522753  79.0871313  46.4608553  24.8852753  79.5091313
  46.5198553  25.5352753  80.0881313  46.2718553  24.1892753  80.0001313
  46.4418553  24.8782753  79.6671313  51.6868553  29.2142753  85.3781313
  51.2078553  29.5122753  84.7121313  51.3308553  28.4382753  85.5561313
  51.5638553  29.1432753  85.3061313  40.9568553  19.4022753  76.0211313
  40.4458553  19.4552753  75.3151313  41.7408553  19.6422753  75.7251313
  40.9968553  19.4452753  75.8731313  45.6838553  26.9322753  83.9401313
  44.8368553  26.7382753  84.0211313  46.0078553  26.7672753  84.7331313
  45.6058553  26.8792753  84.0691313  42.4358553  33.6622753  74.8261313
  42.8748553  32.9652753  75.1141313  42.6428553  34.2862753  75.3991313
  42.5318553  33.6512753  74.9531313  39.5318553  26.6252753  86.2561313
  40.2538553  27.1132753  86.2191313  39.2618553  26.5952753  85.4271313
  39.5988553  26.6932753  86.1281313  42.7618553  21.7962753  82.9911313
  43.6078553  21.6062753  83.0891313  42.3918553  21.0192753  82.8531313
  42.8318553  21.6532753  82.9851313  55.3788553  33.3802753  77.3181313
  56.0728553  32.9132753  77.0701313  54.8398553  32.7822753  77.6551313
  55.4018553  33.2222753  77.3311313  37.5828553  23.1342753  79.6461313
  38.0718553  22.8422753  80.3071313  37.7118553  22.5412753  79.0191313
  37.6738553  23.0032753  79.6511313  52.6178553  26.1562753  86.4971313
  52.6108553  25.3802753  86.8951313  51.7768553  26.3902753  86.4901313
  52.4928553  26.0762753  86.5551313  42.1078553  24.5682753  75.1321313
  41.4978553  24.1632753  75.6061313  41.7218553  24.6862753  74.3591313
  41.9608553  24.5252753  75.0881313  38.9268553  27.6772753  90.5341313
  38.5058553  27.1592753  89.9731313  38.5748553  28.4632753  90.3911313
  38.8128553  27.7172753  90.4301313  53.8738553  26.2272753  83.9341313
  53.5878553  26.6282753  84.6541313  54.7338553  26.1652753  84.0611313
  53.9588553  26.2772753  84.0591313  43.5628553  23.0292753  77.8421313
  43.8348553  23.8552753  77.9091313  42.6998553  23.1042753  77.7461313
  43.4758553  23.1622753  77.8371313  37.0428553  18.9992753  84.3781313
  37.0868553  19.3432753  83.5771313  37.7978553  19.2362753  84.7451313
  37.1608553  19.0852753  84.3141313  55.0048553  31.8602753  84.4631313
  55.2948553  32.1172753  83.6821313  55.6998553  31.9562753  84.9821313
  55.1508553  31.9122753  84.4241313  51.6098553  30.4632753  76.4451313
  51.9438553  29.6572753  76.4801313  50.8548553  30.3912753  76.8751313
  51.5478553  30.3332753  76.5141313  52.0918553  22.2972753  82.1041313
  51.3468553  21.9742753  82.4221313  52.0938553  23.1232753  82.3841313
  51.9818553  22.3712753  82.1921313  54.5318553  28.2572753  89.8561313
  55.1598553  27.7082753  89.6001313  54.4708553  28.8222753  89.1941313
  54.6158553  28.2602753  89.7201313  48.9838553  28.3382753  75.8481313
  49.6678553  27.8242753  75.6791313  48.5668553  28.3842753  75.0831313
  49.0228553  28.2692753  75.7101313  43.6658553  29.4882753  87.1521313
  43.3678553  30.0802753  87.7191313  43.7208553  29.9302753  86.4031313
  43.6298553  29.6412753  87.1251313  41.6448553  28.4382753  90.5501313
  40.8388553  28.1482753  90.7171313  41.5558553  29.3062753  90.5561313
  41.5128553  28.5232753  90.5751313  51.0038553  18.6272753  89.5651313
  51.7478553  19.0792753  89.5021313  50.4378553  19.0972753  89.0961313
  51.0308553  18.7642753  89.4871313  46.1818553  25.9112753  86.6431313
  46.6578553  26.2852753  87.2711313  45.3588553  26.0452753  86.9021313
  46.1308553  25.9862753  86.7741313  42.8918553  21.5142753  89.3841313
  43.0528553  20.7702753  89.8111313  42.8468553  21.2652753  88.5491313
  42.9088553  21.3672753  89.3241313  45.4458553  33.3042753  81.8711313
  45.9918553  33.9832753  81.9251313  45.0958553  33.3862753  81.0761313
  45.4748553  33.4172753  81.7611313  52.2888553  16.6072753  87.2351313
  52.0088553  17.4322753  87.1911313  53.0048553  16.6602753  87.7311313
  52.3538553  16.7372753  87.3021313  44.6438553  17.3222753  89.2641313
  45.3488553  17.6422753  88.8621313  44.8848553  16.5152753  89.4911313
  44.7828553  17.2502753  89.2381313  43.6288553  31.5322753  85.2601313
  43.0048553  32.1142753  85.0781313  43.8768553  31.2462753  84.4741313
  43.5728553  31.5762753  85.1171313  53.7098553  22.8622753  76.0921313
  54.0878553  23.5392753  75.6921313  52.8678553  23.0862753  76.1231313
  53.6408553  22.9952753  76.0371313  45.2228553  26.3082753  75.1751313
  44.4178553  26.1312753  74.8901313  45.1898553  27.1592753  75.3671313
  45.0988553  26.4072753  75.1621313  41.1528553  22.3752753  85.3251313
  41.5928553  22.2722753  84.5791313  41.6978553  22.0622753  85.9301313
  41.2978553  22.3142753  85.3041313  48.8568553  23.0142753  87.2151313
  49.1588553  23.4342753  87.9181313  48.8928553  22.1742753  87.4471313
  48.9068553  22.9522753  87.3531313  51.4048553  22.4612753  79.4671313
  51.6118553  22.2602753  80.2911313  52.1608553  22.7292753  79.1251313
  51.5468553  22.4712753  79.5381313  44.6998553  17.3602753  85.3721313
  43.8738553  17.2112753  85.6091313  44.6598553  17.3952753  84.5011313
  44.5718553  17.3432753  85.2781313  52.4268553  18.5442753  80.9411313
  51.7128553  18.0732753  81.1121313  52.2648553  18.8852753  80.1551313
  52.2978553  18.5252753  80.8501313  52.8698553  26.4882753  79.3211313
  53.3458553  25.7592753  79.2731313  52.0488553  26.2022753  79.2451313
  52.8188553  26.3382753  79.3021313  46.3408553  28.4002753  90.1601313
  45.5458553  28.3362753  90.5111313  46.4118553  29.2472753  89.9651313
  46.2338553  28.5152753  90.1831313  42.1708553  34.6072753  85.4771313
  42.1818553  34.6662753  86.3471313  41.7458553  33.8602753  85.3271313
  42.1098553  34.5052753  85.5831313  40.3288553  20.5022753  78.6321313
  40.4548553  20.1732753  77.8341313  39.5168553  20.2532753  78.8311313
  40.2278553  20.4172753  78.5441313  49.0858553  27.6552753  81.6761313
  49.1618553  27.9962753  82.4751313  49.2548553  26.8082753  81.7971313
  49.1218553  27.5802753  81.8121313  46.6078553  26.9292753  81.2411313
  46.3098553  26.6142753  81.9981313  47.3028553  27.4022753  81.4761313
  46.6668553  26.9522753  81.3881313  46.8298553  31.0472753  89.2681313
  47.5168553  30.9332753  89.7931313  46.9638553  31.8382753  88.9241313
  46.9508553  31.1472753  89.2951313  55.0058553  23.6562753  91.0791313
  54.1508553  23.5342753  91.2051313  55.1588553  23.2612753  90.3161313
  54.9018553  23.5792753  90.9851313  49.5188553  24.3212753  89.6551313
  49.2638553  23.6022753  90.0771313  50.3398553  24.4372753  89.9251313
  49.6028553  24.2322753  89.7571313  38.9348553  34.1052753  90.9191313
  38.2808553  33.5362753  91.0171313  38.5598553  34.8782753  91.0701313
  38.7828553  34.1352753  90.9561313  50.5368553  33.8852753  83.7711313
  50.0858553  34.5282753  84.1501313  51.2448553  33.8062753  84.2761313
  50.5748553  33.9682753  83.9021313  47.2378553  28.9752753  86.7011313
  46.5438553  29.3772753  87.0441313  47.9148553  29.4082753  87.0401313
  47.2348553  29.0982753  86.8021313  40.3058553  22.5132753  89.0481313
  40.6808553  23.1322753  88.5611313  40.9798553  22.0392753  89.3331313
  40.4608553  22.5352753  89.0181313  38.0808553  20.9612753  88.3231313
  38.1578553  20.7922753  87.4701313  38.8268553  21.3672753  88.5201313
  38.2018553  20.9962753  88.2261313  53.6398553  23.6012753  78.7631313
  53.7428553  23.5432753  77.8991313  54.3808553  23.2692753  79.0811313
  53.7648553  23.5442753  78.6821313  40.6348553  18.3712753  90.7341313
  40.5538553  17.5272753  90.9401313  40.3208553  18.4152753  89.9211313
  40.5768553  18.2532753  90.6441313  47.5598553  30.5662753  79.8701313
  47.3548553  31.3992753  79.7111313  46.7848553  30.1842753  79.9921313
  47.4148553  30.6332753  79.8651313  52.7418553  23.7472753  88.1191313
  52.7398553  22.8842753  88.2431313  52.8088553  24.0712753  88.9261313
  52.7518553  23.6672753  88.2561313  37.4778553  26.1872753  88.5471313
  37.7978553  26.4062753  87.7661313  37.3778553  25.3222753  88.4921313
  37.5098553  26.0922753  88.4241313  38.9338553  22.1232753  75.1651313
  38.2618553  22.1372753  75.7211313  39.0288553  21.2752753  74.9811313
  38.8488553  22.0002753  75.2201313  47.6148553  18.7372753  82.7551313
  46.9148553  19.2552753  82.6991313  47.6528553  18.3572753  81.9711313
  47.5168553  18.7582753  82.6311313  42.9218553  30.8282753  76.2791313
  43.3628553  30.9082753  77.0271313  42.1168553  30.6122753  76.5371313
  42.8678553  30.8082753  76.4281313  51.2128553  19.2532753  85.5551313
  52.0678553  19.3522753  85.7001313  50.8438553  19.8062753  86.1201313
  51.2848553  19.3502753  85.6601313  42.2408553  25.4792753  89.9321313
  41.8448553  26.2532753  90.0071313  41.8348553  25.1062753  89.2561313
  42.1228553  25.5382753  89.8431313  51.5168553  24.5332753  84.0461313
  52.1828553  25.0742753  84.2061313  51.1718553  24.8442753  83.3071313
  51.5638553  24.6592753  83.9611313  51.8298553  32.5992753  79.8531313
  51.6558553  31.9452753  80.4031313  52.5428553  32.3282753  79.4301313
  51.9098553  32.4622753  79.8721313  40.2508553  29.8982753  76.8801313
  40.0068553  29.5912753  77.6601313  40.2178553  29.1952753  76.3641313
  40.2098553  29.7492753  76.9191313  43.0698553  28.1432753  75.6231313
  42.2518553  27.8752753  75.7631313  43.0418553  28.9952753  75.8081313
  42.9448553  28.2302753  75.6711313  42.6698553  18.4562753  87.3821313
  41.8058553  18.5402753  87.4621313  42.8898553  17.9422753  88.0511313
  42.5748553  18.3932753  87.4931313  54.6878553  17.0912753  88.7111313
  54.6358553  17.0472753  89.5811313  55.3748553  16.5882753  88.5211313
  54.7818553  17.0112753  88.8111313  46.7728553  19.2042753  85.7561313
  46.0358553  18.7502753  85.8691313  47.3438553  18.8022753  86.2791313
  46.7478553  19.0772753  85.8501313  49.5048553  30.0522753  87.5441313
  49.7108553  30.3532753  88.3361313  49.4438553  30.7742753  87.0591313
  49.5258553  30.2032753  87.5891313  44.2758553  23.5332753  90.9601313
  43.9538553  22.9572753  90.3901313  43.9168553  24.2882753  90.7141313
  44.1758553  23.5592753  90.8401313  45.0718553  16.7852753  75.5871313
  45.1498553  17.0322753  74.7541313  44.3288553  17.1622753  75.8451313
  44.9738553  16.8772753  75.5021313  54.3168553  28.6912753  87.0021313
  54.2848553  27.8292753  86.8671313  53.6238553  28.9932753  86.5681313
  54.2098553  28.6082753  86.9181313  52.4218553  31.9512753  85.7991313
  52.9488553  31.8682753  85.1081313  52.0308553  31.1732753  85.8531313
  52.4418553  31.8242753  85.7051313  39.8898553  18.5392753  88.0301313
  39.5468553  17.7722753  87.7961313  39.1948553  19.0632753  88.0941313
  39.7368553  18.5032753  88.0051313  48.9358553  17.3952753  85.0071313
  49.6058553  17.9392753  85.1341313  48.4328553  17.8192753  84.4341313
  48.9608553  17.5382753  84.9411313  48.2948553  23.2032753  82.5001313
  48.8458553  22.5962753  82.8001313  47.8698553  23.4662753  83.2151313
  48.3138553  23.1522753  82.6491313  38.5428553  21.8532753  81.9861313
  38.1748553  22.1552753  82.7171313  39.0768553  21.2242753  82.2701313
  38.5668553  21.8052753  82.1361313  38.2308553  30.2612753  89.4971313
  37.6568553  30.6772753  90.0061313  38.9638553  30.7262753  89.5921313
  38.2548553  30.3912753  89.5861313  50.2648553  25.0342753  79.0621313
  50.3328553  24.1842753  79.2431313  49.4418553  25.1202753  78.7841313
  50.1528553  24.9212753  79.0481313  40.0168553  33.5282753  78.2721313
  39.8718553  33.6842753  77.4261313  40.8828553  33.6072753  78.3501313
  40.1238553  33.5632753  78.1591313  44.1838553  25.9252753  78.0001313
  44.2838553  26.0642753  77.1451313  45.0018553  25.8652753  78.2961313
  44.3188553  25.9362753  77.9171313  53.3438553  33.9892753  75.4801313
  53.9808553  33.8552753  76.0611313  53.0028553  33.1952753  75.3631313
  53.3878553  33.8522753  75.5481313  49.4188553  30.2542753  77.8021313
  49.1678553  30.1262753  78.6281313  49.1018553  29.5592753  77.3811313
  49.3348553  30.1332753  77.8621313  54.0628553  21.9122753  85.9221313
  53.2298553  22.1622753  85.8501313  54.0068553  21.0722753  86.1511313
  53.9318553  21.8252753  85.9451313  43.3228553  18.9002753  91.1161313
  43.5568553  18.3242753  90.5031313  42.4808553  18.7192753  91.2571313
  43.2328553  18.7882753  91.0461313  40.7038553  32.3432753  84.7491313
  40.6248553  31.5332753  84.4331313  40.2598553  32.8302753  84.1771313
  40.6268553  32.2952753  84.6181313  46.3048553  28.4622753  77.2321313
  47.0218553  28.1152753  76.8761313  46.2708553  29.2622753  76.8841313
  46.4058553  28.5292753  77.1281313  38.2758553  34.5872753  88.3301313
  38.7688553  34.5312753  89.0481313  38.4638553  33.8542753  87.8951313
  38.3768553  34.4702753  88.3721313  47.7138553  17.1032753  61.4708903
  47.4688553  17.5912753  60.7908903  48.5768553  17.0302753  61.3708903
  47.8048553  17.1642753  61.3558903  53.6668553  31.4602753  59.1128903
  54.3678553  30.9412753  59.1088903  53.0798553  31.0152753  58.6438903
  53.6838553  31.3172753  59.0428903  37.1348553  21.9512753  58.1048903
  36.3568553  22.1132753  57.7448903  37.1738553  21.0802753  58.1268903
  37.0258553  21.8462753  58.0548903  50.1938553  25.0862753  62.8178903
  50.2738553  25.0902753  61.9488903  49.6098553  24.4542753  62.9668903
  50.1188553  24.9932753  62.7118903  44.1828553  18.1902753  60.6258903
  44.1128553  18.8672753  60.0798903  44.9238553  17.8022753  60.3768903
  44.2818553  18.2332753  60.5078903  43.9058553  28.4192753  72.9198903
  43.6698553  28.4162753  73.7598903  43.1578553  28.2712753  72.4958903
  43.7598553  28.3962753  72.9808903  43.2858553  21.0252753  67.4018903
  43.9638553  21.0432753  66.8528903  43.2408553  20.1892753  67.6468903
  43.3788553  20.9042753  67.3568903  45.0398553  28.9452753  60.8988903
  45.3708553  28.3012753  61.3848903  45.2798553  28.7342753  60.0878903
  45.1238553  28.8192753  60.8508903  47.0078553  23.0762753  72.2378903
  46.1598553  22.9772753  72.0598903  47.0368553  23.8212753  72.6918903
  46.8868553  23.1722753  72.2788903  41.3758553  18.6092753  61.3438903
  41.0798553  19.1102753  60.6938903  42.2428553  18.6872753  61.2868903
  41.4598553  18.6952753  61.2398903  51.5658553  16.0362753  71.3518903
  51.4078553  16.8052753  70.9698903  50.7938553  15.8162753  71.6958903
  51.4278553  16.1172753  71.3468903  44.3548553  17.7512753  63.5668903
  44.4278553  18.6112753  63.6958903  44.3168553  17.6762753  62.6988903
  44.3598553  17.8672753  63.4578903  49.0278553  20.6772753  55.8658903
  48.5778553  21.3582753  56.1728903  49.1418553  20.1732753  56.5688903
  48.9788553  20.7032753  56.0148903  49.1268553  33.0182753  57.9698903
  49.8538553  33.4902753  58.0718903  49.3558553  32.2242753  58.2498903
  49.2688553  32.9712753  58.0268903  47.2948553  33.4102753  59.9598903
  47.5088553  33.9372753  60.6218903  48.0618553  33.2362753  59.5808903
  47.4398553  33.4622753  60.0018903  40.2628553  17.9932753  65.5588903
  39.7418553  17.3652753  65.2508903  40.8538553  17.5562753  66.0298903
  40.2738553  17.8352753  65.5828903  43.5688553  20.1262753  74.8568903
  43.6858553  19.6722753  74.1208903  43.8568553  20.9242753  74.6538903
  43.6288553  20.1772753  74.7178903  54.4218553  20.6502753  62.1608903
  54.0758553  21.3282753  62.5868903  53.7858553  20.0522753  62.1768903
  54.2768553  20.6622753  62.2258903  49.7338553  33.4202753  68.2648903
  50.4778553  33.8762753  68.2548903  49.6128553  33.2062753  67.4278903
  49.8258553  33.4562753  68.1398903  39.3018553  19.7232753  73.8408903
  38.5238553  19.3332753  73.7688903  39.7928553  19.3112753  73.2498903
  39.2588553  19.6042753  73.7428903  45.9508553  17.3662753  73.0088903
  46.1288553  16.5572753  72.7338903  45.8078553  17.8072753  72.2698903
  45.9558553  17.3122753  72.8588903  47.2668553  22.6312753  56.9028903
  47.5478553  23.4192753  57.1518903  46.4908553  22.7962753  56.5398903
  47.1938553  22.7722753  56.8858903  51.3078553  34.6052753  58.3698903
  51.9728553  34.4572753  57.8248903  51.6678553  34.5222753  59.1598903
  51.4598553  34.5712753  58.4058903  54.0968553  18.9732753  67.5298903
  54.8538553  19.0452753  67.1018903  54.1598553  18.2002753  67.9288903
  54.2178553  18.8702753  67.5248903  36.6498553  20.2712753  71.4268903
  36.6458553  20.8582753  72.0728903  37.2438553  20.5832753  70.8698903
  36.7368553  20.4042753  71.4398903  48.9878553  30.6052753  71.9688903
  48.9538553  30.9872753  72.7528903  49.8418553  30.5632753  71.7978903
  49.1088553  30.6552753  72.0598903  46.1258553  30.8022753  56.7188903
  45.9448553  31.3472753  57.3758903  46.8918553  31.0922753  56.4178903
  46.2118553  30.9262753  56.7718903  49.6328553  18.6982753  57.7728903
  50.1728553  18.0162753  57.8488903  49.6948553  19.0962753  58.5468903
  49.7218553  18.6562753  57.8988903  37.5868553  19.8662753  60.3418903
  37.4728553  19.0022753  60.3728903  37.1118553  20.1602753  61.0118903
  37.4998553  19.7822753  60.4448903  46.8908553  21.0742753  59.0868903
  46.3828553  20.4122753  58.8328903  46.9428553  21.5782753  58.3768903
  46.8238553  21.0512753  58.9448903  46.8908553  18.0152753  58.9778903
  46.4358553  17.6132753  58.3518903  47.6638553  18.1702753  58.6028903
  46.9378553  17.9792753  58.8298903  53.7168553  34.3722753  62.3678903
  53.2618553  35.0892753  62.5688903  53.1028553  33.8012753  62.1258903
  53.5588553  34.3942753  62.3618903  50.7138553  30.2172753  61.9118903
  51.4148553  29.7352753  62.1008903  50.0538553  29.6482753  61.9568903
  50.7198553  30.0622753  61.9458903  40.0968553  16.2052753  61.8478903
  40.6328553  16.8932753  61.8378903  40.0998553  15.9312753  61.0198903
  40.1758553  16.2662753  61.7238903  49.2808553  20.5522753  69.3878903
  49.1858553  20.8712753  70.1938903  48.6878553  19.9132753  69.3498903
  49.1788553  20.5042753  69.5018903  50.5368553  16.4962753  62.2238903
  50.5858553  16.1782753  63.0348903  50.8598553  15.8522753  61.7308903
  50.5918553  16.3542753  62.2708903  36.6238553  30.9472753  74.6738903
  37.3798553  31.2962753  74.9318903  36.8008553  30.0942753  74.6168903
  36.7618553  30.8722753  74.7038903  53.0008553  20.7322753  70.5318903
  53.7728553  20.5072753  70.8688903  52.5258553  20.9492753  71.2318903
  53.0448553  20.7312753  70.6848903  40.5448553  20.0152753  63.5018903
  40.8168553  19.5852753  62.7938903  40.3688553  19.3792753  64.0728903
  40.5588553  19.8582753  63.4818903  53.2328553  27.7102753  57.7198903
  53.3518553  27.4232753  58.5348903  54.0398553  27.7312753  57.3898903
  53.3688553  27.6712753  57.7918903  38.6858553  21.1172753  66.5838903
  39.5288553  21.3372753  66.5408903  38.2968553  21.6902753  66.0528903
  38.7528553  21.2342753  66.4988903  55.4668553  32.2192753  71.9738903
  54.7848553  32.5292753  71.5268903  55.0978553  31.7612753  72.6188903
  55.3108553  32.1972753  72.0028903  51.1278553  24.2472753  57.3048903
  50.9078553  24.9782753  56.8828903  50.6798553  24.2982753  58.0518903
  51.0288553  24.3622753  57.3528903  55.3148553  19.1082753  56.7578903
  54.6528553  18.5402753  56.7808903  55.1218553  19.6202753  56.0778903
  55.1888553  19.1002753  56.6608903  44.5398553  22.8022753  74.7018903
  44.0558553  23.3792753  75.1438903  44.5118553  23.0972753  73.8808903
  44.4638553  22.9312753  74.6458903  55.6378553  23.4862753  69.3138903
  55.8528553  22.6862753  69.0378903  54.7878553  23.5462753  69.1248903
  55.5438553  23.3772753  69.2448903  53.3168553  18.6662753  59.0368903
  54.0628553  18.2592753  59.2358903  53.5798553  19.3812753  58.6118903
  53.4658553  18.7122753  59.0038903  49.7708553  20.9542753  64.1098903
  50.1148553  21.1062753  64.8968903  49.3178553  20.2162753  64.2228903
  49.7548553  20.8672753  64.2428903  44.2468553  20.1742753  58.5668903
  44.2448553  20.0572753  57.7018903  44.0658553  21.0222753  58.6588903
  44.2198553  20.2822753  58.4528903  53.3008553  32.6012753  70.0638903
  52.6298553  33.1152753  70.2818903  53.3638553  32.7012753  69.1998903
  53.2108553  32.6922753  69.9688903  40.1148553  23.6092753  73.0608903
  39.5788553  23.1032753  73.5288903  40.1348553  23.2192753  72.2808903
  40.0378553  23.4762753  73.0148903  40.5998553  23.0062753  58.2008903
  40.4718553  22.5582753  58.9388903  40.0178553  22.6642753  57.6488903
  40.4948553  22.8892753  58.2288903  51.0918553  22.2862753  66.6638903
  50.4298553  22.6142753  67.1268903  51.2788553  22.9202753  66.0948903
  51.0218553  22.4282753  66.6478903  47.7368553  18.1922753  70.0928903
  47.8858553  17.3672753  69.8498903  48.1158553  18.2472753  70.8768903
  47.8148553  18.0782753  70.1728903  49.2848553  20.2552753  60.1748903
  49.7748553  20.9722753  60.0978903  48.4948553  20.5162753  59.9118903
  49.2408553  20.3992753  60.1248903  38.9958553  25.9282753  73.8268903
  38.9588553  26.4292753  73.1128903  39.3268553  25.1762753  73.5318903
  39.0388553  25.8902753  73.6778903  44.8948553  30.9782753  73.2618903
  45.2488553  30.8002753  74.0388903  44.4588553  30.2492753  73.0628903
  44.8828553  30.8442753  73.3478903  48.0558553  24.8942753  58.1738903
  48.0478553  25.6162753  57.6838903  47.4168553  25.0292753  58.7508903
  47.9608553  25.0212753  58.1868903  53.0278553  28.7642753  62.1548903
  53.3838553  28.4142753  62.8698903  53.0198553  28.1032753  61.5848903
  53.0798553  28.6142753  62.1758903  42.6488553  17.2362753  57.8348903
  42.7458553  17.1292753  58.6958903  41.9408553  17.7422753  57.7698903
  42.5588553  17.2952753  57.9528903  52.3458553  26.6792753  70.2448903
  52.4008553  26.8042753  69.3828903  53.0988553  26.9992753  70.5468903
  52.4648553  26.7442753  70.1618903  48.5368553  32.0282753  74.5218903
  48.7008553  32.3112753  75.3308903  48.7998553  32.6892753  74.0168903
  48.5998553  32.1682753  74.5668903  53.3778553  16.9772753  73.2318903
  52.7408553  16.5772753  72.7898903  53.4038553  16.5462753  73.9898903
  53.2878553  16.8552753  73.2778903  36.7678553  17.2042753  60.0458903
  36.8968553  16.4962753  59.5538903  36.4008553  16.8862753  60.7708903
  36.7328553  17.0522753  60.0808903  40.9568553  19.4022753  57.0148903
  40.4458553  19.4552753  56.3088903  41.7408553  19.6422753  56.7188903
  40.9968553  19.4452753  56.8668903  55.3788553  33.3802753  58.3118903
  56.0728553  32.9132753  58.0638903  54.8398553  32.7822753  58.6488903
  55.4018553  33.2222753  58.3248903  52.6178553  26.1562753  67.4908903
  52.6108553  25.3802753  67.8888903  51.7768553  26.3902753  67.4838903
  52.4928553  26.0762753  67.5488903  42.1078553  24.5682753  56.1258903
  41.4978553  24.1632753  56.5998903  41.7218553  24.6862753  55.3528903
  41.9608553  24.5252753  56.0818903  38.9268553  27.6772753  71.5278903
  38.5058553  27.1592753  70.9668903  38.5748553  28.4632753  71.3848903
  38.8128553  27.7172753  71.4238903  53.8738553  26.2272753  64.9278903
  53.5878553  26.6282753  65.6478903  54.7338553  26.1652753  65.0548903
  53.9588553  26.2772753  65.0528903  43.5628553  23.0292753  58.8358903
  43.8348553  23.8552753  58.9028903  42.6998553  23.1042753  58.7398903
  43.4758553  23.1622753  58.8308903  51.5358553  20.1512753  73.4678903
  51.0108553  20.6102753  73.9918903  51.1748553  19.3562753  73.4618903
  51.4048553  20.1012753  73.5438903  37.0428553  18.9992753  65.3718903
  37.0868553  19.3432753  64.5708903  37.7978553  19.2362753  65.7388903
  37.1608553  19.0852753  65.3078903  55.0048553  31.8602753  65.4568903
  55.2948553  32.1172753  64.6758903  55.6998553  31.9562753  65.9758903
  55.1508553  31.9122753  65.4178903  50.0278553  23.7202753  73.5438903
  50.1008553  23.8242753  74.4068903  49.3938553  24.2782753  73.3228903
  49.9448553  23.8182753  73.6388903  52.2958553  24.0392753  71.9088903
  52.6148553  24.8252753  72.1118903  51.9258553  23.7692753  72.6518903
  52.2888553  24.1152753  72.0488903  51.6098553  30.4632753  57.4388903
  51.9438553  29.6572753  57.4738903  50.8548553  30.3912753  57.8688903
  51.5478553  30.3332753  57.5078903  52.0918553  22.2972753  63.0978903
  51.3468553  21.9742753  63.4158903  52.0938553  23.1232753  63.3778903
  51.9818553  22.3712753  63.1858903  54.9938553  24.5812753  74.6438903
  54.9418553  24.2402753  73.8428903  55.7308553  25.0482753  74.6218903
  55.0948553  24.6002753  74.5218903  54.5318553  28.2572753  70.8498903
  55.1598553  27.7082753  70.5938903  54.4708553  28.8222753  70.1878903
  54.6158553  28.2602753  70.7138903  48.9838553  28.3382753  56.8418903
  49.6678553  27.8242753  56.6728903  48.5668553  28.3842753  56.0768903
  49.0228553  28.2692753  56.7038903  51.0038553  18.6272753  70.5588903
  51.7478553  19.0792753  70.4958903  50.4378553  19.0972753  70.0898903
  51.0308553  18.7642753  70.4808903  42.8918553  21.5142753  70.3778903
  43.0528553  20.7702753  70.8048903  42.8468553  21.2652753  69.5428903
  42.9088553  21.3672753  70.3178903  44.6438553  17.3222753  70.2578903
  45.3488553  17.6422753  69.8558903  44.8848553  16.5152753  70.4848903
  44.7828553  17.2502753  70.2318903  47.9378553  28.1662753  73.2428903
  48.6948553  28.4522753  72.9168903  47.3908553  28.2182753  72.5648903
  47.9688553  28.2162753  73.0938903  51.8468553  30.7162753  71.7468903
  52.1928553  30.9862753  72.5008903  52.1408553  31.2982753  71.1668903
  51.9418553  30.8422753  71.7728903  53.7098553  22.8622753  57.0858903
  54.0878553  23.5392753  56.6858903  52.8678553  23.0862753  57.1168903
  53.6408553  22.9952753  57.0308903  45.2228553  26.3082753  56.1688903
  44.4178553  26.1312753  55.8838903  45.1898553  27.1592753  56.3608903
  45.0988553  26.4072753  56.1558903  41.1528553  22.3752753  66.3188903
  41.5928553  22.2722753  65.5728903  41.6978553  22.0622753  66.9238903
  41.2978553  22.3142753  66.2978903  49.1688553  21.4772753  71.9108903
  48.5208553  21.9472753  72.2588903  49.7338553  21.3882753  72.5698903
  49.1568553  21.5332753  72.0598903  48.8568553  23.0142753  68.2088903
  49.1588553  23.4342753  68.9118903  48.8928553  22.1742753  68.4408903
  48.9068553  22.9522753  68.3468903  46.2818553  33.1812753  72.1338903
  46.7598553  32.5812753  71.7178903  45.9308553  32.7382753  72.7988903
  46.3008553  33.0272753  72.1708903  51.4048553  22.4612753  60.4608903
  51.6118553  22.2602753  61.2848903  52.1608553  22.7292753  60.1188903
  51.5468553  22.4712753  60.5318903  44.6998553  17.3602753  66.3658903
  43.8738553  17.2112753  66.6028903  44.6598553  17.3952753  65.4948903
  44.5718553  17.3432753  66.2718903  52.4268553  18.5442753  61.9348903
  51.7128553  18.0732753  62.1058903  52.2648553  18.8852753  61.1488903
  52.2978553  18.5252753  61.8438903  52.8698553  26.4882753  60.3148903
  53.3458553  25.7592753  60.2668903  52.0488553  26.2022753  60.2388903
  52.8188553  26.3382753  60.2958903  37.2648553  17.7582753  72.4008903
  37.1248553  18.5532753  72.0698903  36.4788553  17.5152753  72.6898903
  37.1278553  17.8402753  72.3948903  40.3288553  20.5022753  59.6258903
  40.4548553  20.1732753  58.8278903  39.5168553  20.2532753  59.8248903
  40.2278553  20.4172753  59.5378903  55.0058553  23.6562753  72.0728903
  54.1508553  23.5342753  72.1988903  55.1588553  23.2612753  71.3098903
  54.9018553  23.5792753  71.9788903  49.5188553  24.3212753  70.6488903
  49.2638553  23.6022753  71.0708903  50.3398553  24.4372753  70.9188903
  49.6028553  24.2322753  70.7508903  38.9348553  34.1052753  71.9128903
  38.2808553  33.5362753  72.0108903  38.5598553  34.8782753  72.0638903
  38.7828553  34.1352753  71.9498903  47.4528553  25.5112753  73.8358903
  47.7758553  26.1972753  73.4038903  46.7488553  25.8342753  74.2378903
  47.3958553  25.6602753  73.8308903  50.5368553  33.8852753  64.7648903
  50.0858553  34.5282753  65.1438903  51.2448553  33.8062753  65.2698903
  50.5748553  33.9682753  64.8958903  52.6148553  31.5682753  74.2748903
  53.3908553  31.1782753  74.3578903  52.1458553  31.2322753  74.9298903
  52.6598553  31.4612753  74.3838903  40.3058553  22.5132753  70.0418903
  40.6808553  23.1322753  69.5548903  40.9798553  22.0392753  70.3268903
  40.4608553  22.5352753  70.0118903  38.0808553  20.9612753  69.3168903
  38.1578553  20.7922753  68.4638903  38.8268553  21.3672753  69.5138903
  38.2018553  20.9962753  69.2198903  53.6398553  23.6012753  59.7568903
  53.7428553  23.5432753  58.8928903  54.3808553  23.2692753  60.0748903
  53.7648553  23.5442753  59.6758903  40.6348553  18.3712753  71.7278903
  40.5538553  17.5272753  71.9338903  40.3208553  18.4152753  70.9148903
  40.5768553  18.2532753  71.6378903  47.5598553  30.5662753  60.8638903
  47.3548553  31.3992753  60.7048903  46.7848553  30.1842753  60.9858903
  47.4148553  30.6332753  60.8588903  52.7418553  23.7472753  69.1128903
  52.7398553  22.8842753  69.2368903  52.8088553  24.0712753  69.9198903
  52.7518553  23.6672753  69.2498903  38.9338553  22.1232753  56.1588903
  38.2618553  22.1372753  56.7148903  39.0288553  21.2752753  55.9748903
  38.8488553  22.0002753  56.2138903  48.6208553  18.5472753  72.8948903
  48.7128553  19.2592753  73.3888903  47.9838553  18.1022753  73.2918903
  48.5398553  18.5862753  73.0268903  47.6148553  18.7372753  63.7488903
  46.9148553  19.2552753  63.6928903  47.6528553  18.3572753  62.9648903
  47.5168553  18.7582753  63.6248903  51.2128553  19.2532753  66.5488903
  52.0678553  19.3522753  66.6938903  50.8438553  19.8062753  67.1138903
  51.2848553  19.3502753  66.6538903  42.2408553  25.4792753  70.9258903
  41.8448553  26.2532753  71.0008903  41.8348553  25.1062753  70.2498903
  42.1228553  25.5382753  70.8368903  51.5168553  24.5332753  65.0398903
  52.1828553  25.0742753  65.1998903  51.1718553  24.8442753  64.3008903
  51.5638553  24.6592753  64.9548903  51.8298553  32.5992753  60.8468903
  51.6558553  31.9452753  61.3968903  52.5428553  32.3282753  60.4238903
  51.9098553  32.4622753  60.8658903  43.0698553  28.1432753  56.6168903
  42.2518553  27.8752753  56.7568903  43.0418553  28.9952753  56.8018903
  42.9448553  28.2302753  56.6648903  42.6698553  18.4562753  68.3758903
  41.8058553  18.5402753  68.4558903  42.8898553  17.9422753  69.0448903
  42.5748553  18.3932753  68.4868903  54.6878553  17.0912753  69.7048903
  54.6358553  17.0472753  70.5748903  55.3748553  16.5882753  69.5148903
  54.7818553  17.0112753  69.8048903  46.7728553  19.2042753  66.7498903
  46.0358553  18.7502753  66.8628903  47.3438553  18.8022753  67.2728903
  46.7478553  19.0772753  66.8438903  49.0388553  34.2662753  72.7838903
  48.2858553  34.2482753  72.3428903  49.2068553  35.1182753  72.8678903
  48.9528553  34.3892753  72.7308903  44.2758553  23.5332753  71.9538903
  43.9538553  22.9572753  71.3838903  43.9168553  24.2882753  71.7078903
  44.1758553  23.5592753  71.8338903  45.0718553  16.7852753  56.5808903
  45.1498553  17.0322753  55.7478903  44.3288553  17.1622753  56.8388903
  44.9738553  16.8772753  56.4958903  54.3168553  28.6912753  67.9958903
  54.2848553  27.8292753  67.8608903  53.6238553  28.9932753  67.5618903
  54.2098553  28.6082753  67.9118903  52.4218553  31.9512753  66.7928903
  52.9488553  31.8682753  66.1018903  52.0308553  31.1732753  66.8468903
  52.4418553  31.8242753  66.6988903  39.8898553  18.5392753  69.0238903
  39.5468553  17.7722753  68.7898903  39.1948553  19.0632753  69.0878903
  39.7368553  18.5032753  68.9988903  48.9358553  17.3952753  66.0008903
  49.6058553  17.9392753  66.1278903  48.4328553  17.8192753  65.4278903
  48.9608553  17.5382753  65.9348903  40.3038553  32.2722753  73.5618903
  40.8988553  32.7032753  74.0338903  39.9398553  32.8962753  73.0728903
  40.3378553  32.4282753  73.5588903  38.2308553  30.2612753  70.4908903
  37.6568553  30.6772753  70.9998903  38.9638553  30.7262753  70.5858903
  38.2548553  30.3912753  70.5798903  50.2648553  25.0342753  60.0558903
  50.3328553  24.1842753  60.2368903  49.4418553  25.1202753  59.7778903
  50.1528553  24.9212753  60.0418903  44.1838553  25.9252753  58.9938903
  44.2838553  26.0642753  58.1388903  45.0018553  25.8652753  59.2898903
  44.3188553  25.9362753  58.9108903  53.3438553  33.9892753  56.4738903
  53.9808553  33.8552753  57.0548903  53.0028553  33.1952753  56.3568903
  53.3878553  33.8522753  56.5418903  53.5388553  26.4072753  73.2068903
  54.1728553  26.2372753  73.7808903  53.9558553  26.8102753  72.5548903
  53.6938553  26.4422753  73.1958903  49.4188553  30.2542753  58.7958903
  49.1678553  30.1262753  59.6218903  49.1018553  29.5592753  58.3748903
  49.3348553  30.1332753  58.8558903  54.1638553  20.9712753  73.9448903
  53.9678553  21.6152753  74.4998903  53.4418553  20.4812753  73.9368903
  54.0288553  20.9942753  74.0258903  54.0628553  21.9122753  66.9158903
  53.2298553  22.1622753  66.8438903  54.0068553  21.0722753  67.1448903
  53.9318553  21.8252753  66.9388903  43.3228553  18.9002753  72.1098903
  43.5568553  18.3242753  71.4968903  42.4808553  18.7192753  72.2508903
  43.2328553  18.7882753  72.0398903  50.9498553  26.5182753  74.5618903
  51.8208553  26.4822753  74.5258903  50.7308553  26.9382753  73.8298903
  51.0468553  26.5742753  74.4488903  46.3048553  28.4622753  58.2258903
  47.0218553  28.1152753  57.8698903  46.2708553  29.2622753  57.8778903
  46.4058553  28.5292753  58.1218903  38.2758553  34.5872753  69.3238903
  38.7688553  34.5312753  70.0418903  38.4638553  33.8542753  68.8888903
  38.3768553  34.4702753  69.3658903  47.7138553  17.1032753  42.4646493
  47.4688553  17.5912753  41.7846493  48.5768553  17.0302753  42.3646493
  47.8048553  17.1642753  42.3496493  47.5228553  24.0192753  47.1356493
  46.9988553  24.6152753  47.4986493  47.9198553  23.6512753  47.8196493
  47.5038553  24.0532753  47.2906493  37.3918553  28.1592753  42.5916493
  36.9508553  28.2772753  43.3346493  37.1088553  27.3842753  42.3066493
  37.2848553  28.0622753  42.6596493  53.6668553  31.4602753  40.1066493
  54.3678553  30.9412753  40.1026493  53.0798553  31.0152753  39.6376493
  53.6838553  31.3172753  40.0366493  37.1348553  21.9512753  39.0986493
  36.3568553  22.1132753  38.7386493  37.1738553  21.0802753  39.1206493
  37.0258553  21.8462753  39.0486493  40.2738553  27.2142753  37.7706493
  39.8818553  26.8432753  37.0846493  40.1938553  26.6162753  38.3996493
  40.2038553  27.0712753  37.7616493  50.1938553  25.0862753  43.8116493
  50.2738553  25.0902753  42.9426493  49.6098553  24.4542753  43.9606493
  50.1188553  24.9932753  43.7056493  39.9008553  28.8552753  41.6706493
  40.5088553  28.6852753  42.2736493  39.1498553  28.7152753  42.0916493
  39.8798553  28.8092753  41.8216493  44.1828553  18.1902753  41.6196493
  44.1128553  18.8672753  41.0736493  44.9238553  17.8022753  41.3706493
  44.2818553  18.2332753  41.5016493  38.7918553  31.9462753  37.7476493
  39.2588553  32.0302753  37.0156493  39.2468553  31.3682753  38.2166493
  38.9278553  31.8732753  37.7086493  43.9058553  28.4192753  53.9136493
  43.6698553  28.4162753  54.7536493  43.1578553  28.2712753  53.4896493
  43.7598553  28.3962753  53.9746493  38.7778553  25.4152753  43.0486493
  38.3158553  25.0232753  42.4216493  39.4778553  24.9022753  43.1406493
  38.8128553  25.2822753  42.9696493  43.2858553  21.0252753  48.3956493
  43.9638553  21.0432753  47.8466493  43.2408553  20.1892753  48.6406493
  43.3788553  20.9042753  48.3506493  43.8878553  31.6112753  51.1766493
  44.0258553  32.3712753  50.7696493  44.6788553  31.2462753  51.2036493
  44.0248553  31.6702753  51.1206493  40.7788553  23.5152753  43.0716493
  41.5958553  23.3282753  43.3146493  40.3018553  22.9012753  43.4676493
  40.8288553  23.3972753  43.1666493  44.9828553  29.4962753  45.6816493
  45.3308553  28.6972753  45.7116493  45.6478553  30.0002753  45.4266493
  45.1328553  29.4522753  45.6486493  45.0398553  28.9452753  41.8926493
  45.3708553  28.3012753  42.3786493  45.2798553  28.7342753  41.0816493
  45.1238553  28.8192753  41.8446493  47.0078553  23.0762753  53.2316493
  46.1598553  22.9772753  53.0536493  47.0368553  23.8212753  53.6856493
  46.8868553  23.1722753  53.2726493  41.3758553  18.6092753  42.3376493
  41.0798553  19.1102753  41.6876493  42.2428553  18.6872753  42.2806493
  41.4598553  18.6952753  42.2336493  51.5658553  16.0362753  52.3456493
  51.4078553  16.8052753  51.9636493  50.7938553  15.8162753  52.6896493
  51.4278553  16.1172753  52.3406493  44.3548553  17.7512753  44.5606493
  44.4278553  18.6112753  44.6896493  44.3168553  17.6762753  43.6926493
  44.3598553  17.8672753  44.4516493  49.0278553  20.6772753  36.8596493
  48.5778553  21.3582753  37.1666493  49.1418553  20.1732753  37.5626493
  48.9788553  20.7032753  37.0086493  37.2338553  23.1762753  46.0616493
  36.9778553  24.0072753  45.9866493  36.5698553  22.7932753  46.4786493
  37.0978553  23.2422753  46.1126493  37.1438553  32.8862753  43.9616493
  36.5518553  33.4442753  43.6486493  37.5698553  32.6172753  43.2496493
  37.1198553  32.9282753  43.8106493  42.9838553  30.7302753  41.4416493
  42.4048553  30.4552753  42.0336493  43.6078553  30.1212753  41.4666493
  42.9908553  30.6002753  41.5326493  49.1268553  33.0182753  38.9636493
  49.8538553  33.4902753  39.0656493  49.3558553  32.2242753  39.2436493
  49.2688553  32.9712753  39.0206493  47.2948553  33.4102753  40.9536493
  47.5088553  33.9372753  41.6156493  48.0618553  33.2362753  40.5746493
  47.4398553  33.4622753  40.9956493  40.2628553  17.9932753  46.5526493
  39.7418553  17.3652753  46.2446493  40.8538553  17.5562753  47.0236493
  40.2738553  17.8352753  46.5766493  43.5688553  20.1262753  55.8506493
  43.6858553  19.6722753  55.1146493  43.8568553  20.9242753  55.6476493
  43.6288553  20.1772753  55.7116493  38.6888553  31.5562753  41.8926493
  39.3448553  30.9812753  41.9076493  39.0778553  32.3052753  41.6716493
  38.8438553  31.5812753  41.8626493  54.4218553  20.6502753  43.1546493
  54.0758553  21.3282753  43.5806493  53.7858553  20.0522753  43.1706493
  54.2768553  20.6622753  43.2196493  49.7338553  33.4202753  49.2586493
  50.4778553  33.8762753  49.2486493  49.6128553  33.2062753  48.4216493
  49.8258553  33.4562753  49.1336493  39.3018553  19.7232753  54.8346493
  38.5238553  19.3332753  54.7626493  39.7928553  19.3112753  54.2436493
  39.2588553  19.6042753  54.7366493  39.5068553  30.0432753  45.3926493
  39.9298553  29.6872753  44.7186493  39.8308553  29.6212753  46.0846493
  39.6168553  29.9282753  45.3956493  42.7378553  32.8952753  44.6886493
  43.5818553  32.9992753  44.4936493  42.4408553  33.7132753  44.7566493
  42.8188553  33.0312753  44.6696493  45.9508553  17.3662753  54.0026493
  46.1288553  16.5572753  53.7276493  45.8078553  17.8072753  53.2636493
  45.9558553  17.3122753  53.8526493  46.5448553  22.2922753  42.7756493
  46.8318553  22.0602753  41.9856493  47.2768553  22.3712753  43.2446493
  46.6948553  22.2692753  42.7286493  47.2668553  22.6312753  37.8966493
  47.5478553  23.4192753  38.1456493  46.4908553  22.7962753  37.5336493
  47.1938553  22.7722753  37.8796493  51.3078553  34.6052753  39.3636493
  51.9728553  34.4572753  38.8186493  51.6678553  34.5222753  40.1536493
  51.4598553  34.5712753  39.3996493  54.0968553  18.9732753  48.5236493
  54.8538553  19.0452753  48.0956493  54.1598553  18.2002753  48.9226493
  54.2178553  18.8702753  48.5186493  36.6498553  20.2712753  52.4206493
  36.6458553  20.8582753  53.0666493  37.2438553  20.5832753  51.8636493
  36.7368553  20.4042753  52.4336493  48.9878553  30.6052753  52.9626493
  48.9538553  30.9872753  53.7466493  49.8418553  30.5632753  52.7916493
  49.1088553  30.6552753  53.0536493  46.1258553  30.8022753  37.7126493
  45.9448553  31.3472753  38.3696493  46.8918553  31.0922753  37.4116493
  46.2118553  30.9262753  37.7656493  49.6328553  18.6982753  38.7666493
  50.1728553  18.0162753  38.8426493  49.6948553  19.0962753  39.5406493
  49.7218553  18.6562753  38.8926493  37.5868553  19.8662753  41.3356493
  37.4728553  19.0022753  41.3666493  37.1118553  20.1602753  42.0056493
  37.4998553  19.7822753  41.4386493  46.8908553  21.0742753  40.0806493
  46.3828553  20.4122753  39.8266493  46.9428553  21.5782753  39.3706493
  46.8238553  21.0512753  39.9386493  47.4398553  33.7692753  50.4606493
  48.2078553  33.6892753  50.0546493  46.8568553  33.6482753  49.8226493
  47.4668553  33.7392753  50.3066493  46.8908553  18.0152753  39.9716493
  46.4358553  17.6132753  39.3456493  47.6638553  18.1702753  39.5966493
  46.9378553  17.9792753  39.8236493  53.7168553  34.3722753  43.3616493
  53.2618553  35.0892753  43.5626493  53.1028553  33.8012753  43.1196493
  53.5588553  34.3942753  43.3556493  45.4888553  20.3822753  44.4936493
  45.5628553  20.9502753  43.8356493  45.6098553  20.8742753  45.2036493
  45.5168553  20.5392753  44.5016493  50.7138553  30.2172753  42.9056493
  51.4148553  29.7352753  43.0946493  50.0538553  29.6482753  42.9506493
  50.7198553  30.0622753  42.9396493  40.0968553  16.2052753  42.8416493
  40.6328553  16.8932753  42.8316493  40.0998553  15.9312753  42.0136493
  40.1758553  16.2662753  42.7176493  43.0528553  26.6382753  46.8666493
  43.2248553  26.4282753  47.6956493  42.3978553  26.1042753  46.6506493
  42.9818553  26.5282753  46.9576493  49.2808553  20.5522753  50.3816493
  49.1858553  20.8712753  51.1876493  48.6878553  19.9132753  50.3436493
  49.1788553  20.5042753  50.4956493  43.8028553  26.5762753  49.4566493
  43.8558553  27.4232753  49.6586493  43.5178553  26.2062753  50.1936493
  43.7688553  26.6462753  49.5946493  49.9798553  27.2712753  48.5866493
  49.4658553  26.8592753  49.1576493  49.8538553  28.1152753  48.7676493
  49.8858553  27.3352753  48.6976493  50.5368553  16.4962753  43.2176493
  50.5858553  16.1782753  44.0286493  50.8598553  15.8522753  42.7246493
  50.5918553  16.3542753  43.2646493  53.0008553  20.7322753  51.5256493
  53.7728553  20.5072753  51.8626493  52.5258553  20.9492753  52.2256493
  53.0448553  20.7312753  51.6786493  40.5448553  20.0152753  44.4956493
  40.8168553  19.5852753  43.7876493  40.3688553  19.3792753  45.0666493
  40.5588553  19.8582753  44.4756493  53.2328553  27.7102753  38.7136493
  53.3518553  27.4232753  39.5286493  54.0398553  27.7312753  38.3836493
  53.3688553  27.6712753  38.7856493  40.3688553  27.4422753  44.0446493
  41.2198553  27.3622753  43.8716493  40.0118553  26.7602753  43.6326493
  40.4418553  27.3292753  43.9576493  39.1358553  34.1672753  45.2816493
  38.4628553  33.6692753  45.0366493  39.5388553  34.3522753  44.5306493
  39.0958553  34.1212753  45.1346493  38.6858553  21.1172753  47.5776493
  39.5288553  21.3372753  47.5346493  38.2968553  21.6902753  47.0466493
  38.7528553  21.2342753  47.4926493  55.4668553  32.2192753  52.9676493
  54.7848553  32.5292753  52.5206493  55.0978553  31.7612753  53.6126493
  55.3108553  32.1972753  52.9966493  51.1278553  24.2472753  38.2986493
  50.9078553  24.9782753  37.8766493  50.6798553  24.2982753  39.0456493
  51.0288553  24.3622753  38.3466493  42.7368553  27.4492753  42.2796493
  43.4498553  27.9442753  42.3696493  42.9588553  26.8822753  41.6536493
  42.8748553  27.4382753  42.2006493  55.3148553  19.1082753  37.7516493
  54.6528553  18.5402753  37.7746493  55.1218553  19.6202753  37.0716493
  55.1888553  19.1002753  37.6546493  36.8928553  29.0922753  45.5996493
  36.2258553  29.5802753  45.8756493  37.5728553  29.6372753  45.6286493
  36.8948553  29.2442753  45.6446493  44.5398553  22.8022753  55.6956493
  44.0558553  23.3792753  56.1376493  44.5118553  23.0972753  54.8746493
  44.4638553  22.9312753  55.6396493  55.6378553  23.4862753  50.3076493
  55.8528553  22.6862753  50.0316493  54.7878553  23.5462753  50.1186493
  55.5438553  23.3772753  50.2386493  36.9588553  25.7762753  40.7026493
  36.7738553  24.9372753  40.8546493  37.6178553  25.7402753  40.1326493
  37.0288553  25.6472753  40.6406493  53.3168553  18.6662753  40.0306493
  54.0628553  18.2592753  40.2296493  53.5798553  19.3812753  39.6056493
  53.4658553  18.7122753  39.9976493  47.2598553  31.1522753  44.6066493
  46.7368553  31.7862753  44.3136493  47.5698553  30.7882753  43.8776493
  47.2278553  31.1922753  44.4556493  49.7708553  20.9542753  45.1036493
  50.1148553  21.1062753  45.8906493  49.3178553  20.2162753  45.2166493
  49.7548553  20.8672753  45.2366493  36.9608553  28.3892753  37.9056493
  37.7168553  27.9572753  37.9636493  36.9758553  28.9212753  38.5966493
  37.0748553  28.4042753  38.0166493  44.2468553  20.1742753  39.5606493
  44.2448553  20.0572753  38.6956493  44.0658553  21.0222753  39.6526493
  44.2198553  20.2822753  39.4466493  53.3008553  32.6012753  51.0576493
  52.6298553  33.1152753  51.2756493  53.3638553  32.7012753  50.1936493
  53.2108553  32.6922753  50.9626493  41.9848553  30.1262753  44.1926493
  42.1108553  30.9692753  44.3796493  42.6528553  29.7272753  44.5886493
  42.1028553  30.1922753  44.2786493  40.1148553  23.6092753  54.0546493
  39.5788553  23.1032753  54.5226493  40.1348553  23.2192753  53.2746493
  40.0378553  23.4762753  54.0086493  40.5998553  23.0062753  39.1946493
  40.4718553  22.5582753  39.9326493  40.0178553  22.6642753  38.6426493
  40.4948553  22.8892753  39.2226493  40.7668553  24.8362753  45.7936493
  39.9858553  24.7772753  45.4106493  40.8388553  24.0842753  46.2306493
  40.6618553  24.7172753  45.8016493  51.0918553  22.2862753  47.6576493
  50.4298553  22.6142753  48.1206493  51.2788553  22.9202753  47.0886493
  51.0218553  22.4282753  47.6416493  45.2968553  33.3502753  48.6536493
  45.0198553  32.7092753  48.1306493  45.0888553  34.0762753  48.2156493
  45.2258553  33.3632753  48.5116493  47.7368553  18.1922753  51.0866493
  47.8858553  17.3672753  50.8436493  48.1158553  18.2472753  51.8706493
  47.8148553  18.0782753  51.1666493  49.2848553  20.2552753  41.1686493
  49.7748553  20.9722753  41.0916493  48.4948553  20.5162753  40.9056493
  49.2408553  20.3992753  41.1186493  50.5988553  28.1332753  53.0786493
  51.0828553  28.8512753  53.1766493  50.9928553  27.7062753  52.4276493
  50.7288553  28.1762753  52.9966493  44.8948553  30.9782753  54.2556493
  45.2488553  30.8002753  55.0326493  44.4588553  30.2492753  54.0566493
  44.8828553  30.8442753  54.3416493  45.8668553  21.7252753  46.8936493
  46.3468553  22.4242753  47.1016493  46.2398553  21.0782753  47.3446493
  45.9928553  21.7332753  46.9906493  48.0558553  24.8942753  39.1676493
  48.0478553  25.6162753  38.6776493  47.4168553  25.0292753  39.7446493
  47.9608553  25.0212753  39.1806493  53.0278553  28.7642753  43.1486493
  53.3838553  28.4142753  43.8636493  53.0198553  28.1032753  42.5786493
  53.0798553  28.6142753  43.1696493  49.0728553  31.8302753  46.9926493
  48.4698553  31.5342753  46.4356493  49.6178553  32.2822753  46.4836493
  49.0638553  31.8532753  46.8346493  49.0858553  28.6812753  46.3926493
  48.2888553  28.9052753  46.6666493  49.3438553  28.0872753  46.9776493
  49.0058553  28.6262753  46.5196493  42.9778553  33.4932753  40.8406493
  42.8308553  32.7172753  41.2116493  43.6668553  33.3462753  40.3256493
  43.0578553  33.3562753  40.8196493  42.6488553  17.2362753  38.8286493
  42.7458553  17.1292753  39.6896493  41.9408553  17.7422753  38.7636493
  42.5588553  17.2952753  38.9466493  45.2698553  33.0092753  39.2426493
  45.8918553  33.1722753  39.8326493  45.3058553  33.7002753  38.7106493
  45.3668553  33.1352753  39.2516493  52.3458553  26.6792753  51.2386493
  52.4008553  26.8042753  50.3766493  53.0988553  26.9992753  51.5406493
  52.4648553  26.7442753  51.1556493  48.5368553  32.0282753  55.5156493
  48.7008553  32.3112753  56.3246493  48.7998553  32.6892753  55.0106493
  48.5998553  32.1682753  55.5606493  53.3778553  16.9772753  54.2256493
  52.7408553  16.5772753  53.7836493  53.4038553  16.5462753  54.9836493
  53.2878553  16.8552753  54.2716493  39.7708553  25.5432753  40.0716493
  40.0948553  24.7642753  39.8496493  40.4168553  25.9112753  40.5266493
  39.9138553  25.4822753  40.1056493  48.0768553  26.4852753  50.8386493
  47.9218553  27.0952753  51.4426493  48.6108553  25.9272753  51.2446493
  48.1328553  26.4932753  50.9876493  36.7678553  17.2042753  41.0396493
  36.8968553  16.4962753  40.5476493  36.4008553  16.8862753  41.7646493
  36.7328553  17.0522753  41.0746493  46.4608553  24.8852753  41.4966493
  46.5198553  25.5352753  42.0756493  46.2718553  24.1892753  41.9876493
  46.4418553  24.8782753  41.6546493  51.6868553  29.2142753  47.3656493
  51.2078553  29.5122753  46.6996493  51.3308553  28.4382753  47.5436493
  51.5638553  29.1432753  47.2936493  40.9568553  19.4022753  38.0086493
  40.4458553  19.4552753  37.3026493  41.7408553  19.6422753  37.7126493
  40.9968553  19.4452753  37.8606493  45.6838553  26.9322753  45.9276493
  44.8368553  26.7382753  46.0086493  46.0078553  26.7672753  46.7206493
  45.6058553  26.8792753  46.0566493  42.4358553  33.6622753  36.8136493
  42.8748553  32.9652753  37.1016493  42.6428553  34.2862753  37.3866493
  42.5318553  33.6512753  36.9406493  42.7618553  21.7962753  44.9786493
  43.6078553  21.6062753  45.0766493  42.3918553  21.0192753  44.8406493
  42.8318553  21.6532753  44.9726493  55.3788553  33.3802753  39.3056493
  56.0728553  32.9132753  39.0576493  54.8398553  32.7822753  39.6426493
  55.4018553  33.2222753  39.3186493  37.5828553  23.1342753  41.6336493
  38.0718553  22.8422753  42.2946493  37.7118553  22.5412753  41.0066493
  37.6738553  23.0032753  41.6386493  52.6178553  26.1562753  48.4846493
  52.6108553  25.3802753  48.8826493  51.7768553  26.3902753  48.4776493
  52.4928553  26.0762753  48.5426493  42.1078553  24.5682753  37.1196493
  41.4978553  24.1632753  37.5936493  41.7218553  24.6862753  36.3466493
  41.9608553  24.5252753  37.0756493  53.8738553  26.2272753  45.9216493
  53.5878553  26.6282753  46.6416493  54.7338553  26.1652753  46.0486493
  53.9588553  26.2772753  46.0466493  43.5628553  23.0292753  39.8296493
  43.8348553  23.8552753  39.8966493  42.6998553  23.1042753  39.7336493
  43.4758553  23.1622753  39.8246493  51.5358553  20.1512753  54.4616493
  51.0108553  20.6102753  54.9856493  51.1748553  19.3562753  54.4556493
  51.4048553  20.1012753  54.5376493  37.0428553  18.9992753  46.3656493
  37.0868553  19.3432753  45.5646493  37.7978553  19.2362753  46.7326493
  37.1608553  19.0852753  46.3016493  55.0048553  31.8602753  46.4506493
  55.2948553  32.1172753  45.6696493  55.6998553  31.9562753  46.9696493
  55.1508553  31.9122753  46.4116493  50.0278553  23.7202753  54.5376493
  50.1008553  23.8242753  55.4006493  49.3938553  24.2782753  54.3166493
  49.9448553  23.8182753  54.6326493  52.2958553  24.0392753  52.9026493
  52.6148553  24.8252753  53.1056493  51.9258553  23.7692753  53.6456493
  52.2888553  24.1152753  53.0426493  51.6098553  30.4632753  38.4326493
  51.9438553  29.6572753  38.4676493  50.8548553  30.3912753  38.8626493
  51.5478553  30.3332753  38.5016493  52.0918553  22.2972753  44.0916493
  51.3468553  21.9742753  44.4096493  52.0938553  23.1232753  44.3716493
  51.9818553  22.3712753  44.1796493  54.9938553  24.5812753  55.6376493
  54.9418553  24.2402753  54.8366493  55.7308553  25.0482753  55.6156493
  55.0948553  24.6002753  55.5156493  54.5318553  28.2572753  51.8436493
  55.1598553  27.7082753  51.5876493  54.4708553  28.8222753  51.1816493
  54.6158553  28.2602753  51.7076493  48.9838553  28.3382753  37.8356493
  49.6678553  27.8242753  37.6666493  48.5668553  28.3842753  37.0706493
  49.0228553  28.2692753  37.6976493  43.6658553  29.4882753  49.1396493
  43.3678553  30.0802753  49.7066493  43.7208553  29.9302753  48.3906493
  43.6298553  29.6412753  49.1126493  51.0038553  18.6272753  51.5526493
  51.7478553  19.0792753  51.4896493  50.4378553  19.0972753  51.0836493
  51.0308553  18.7642753  51.4746493  46.1818553  25.9112753  48.6306493
  46.6578553  26.2852753  49.2586493  45.3588553  26.0452753  48.8896493
  46.1308553  25.9862753  48.7616493  42.8918553  21.5142753  51.3716493
  43.0528553  20.7702753  51.7986493  42.8468553  21.2652753  50.5366493
  42.9088553  21.3672753  51.3116493  45.4458553  33.3042753  43.8586493
  45.9918553  33.9832753  43.9126493  45.0958553  33.3862753  43.0636493
  45.4748553  33.4172753  43.7486493  52.2888553  16.6072753  49.2226493
  52.0088553  17.4322753  49.1786493  53.0048553  16.6602753  49.7186493
  52.3538553  16.7372753  49.2896493  44.6438553  17.3222753  51.2516493
  45.3488553  17.6422753  50.8496493  44.8848553  16.5152753  51.4786493
  44.7828553  17.2502753  51.2256493  43.6288553  31.5322753  47.2476493
  43.0048553  32.1142753  47.0656493  43.8768553  31.2462753  46.4616493
  43.5728553  31.5762753  47.1046493  51.8468553  30.7162753  52.7406493
  52.1928553  30.9862753  53.4946493  52.1408553  31.2982753  52.1606493
  51.9418553  30.8422753  52.7666493  53.7098553  22.8622753  38.0796493
  54.0878553  23.5392753  37.6796493  52.8678553  23.0862753  38.1106493
  53.6408553  22.9952753  38.0246493  45.2228553  26.3082753  37.1626493
  44.4178553  26.1312753  36.8776493  45.1898553  27.1592753  37.3546493
  45.0988553  26.4072753  37.1496493  41.1528553  22.3752753  47.3126493
  41.5928553  22.2722753  46.5666493  41.6978553  22.0622753  47.9176493
  41.2978553  22.3142753  47.2916493  49.1688553  21.4772753  52.9046493
  48.5208553  21.9472753  53.2526493  49.7338553  21.3882753  53.5636493
  49.1568553  21.5332753  53.0536493  48.8568553  23.0142753  49.2026493
  49.1588553  23.4342753  49.9056493  48.8928553  22.1742753  49.4346493
  48.9068553  22.9522753  49.3406493  46.2818553  33.1812753  53.1276493
  46.7598553  32.5812753  52.7116493  45.9308553  32.7382753  53.7926493
  46.3008553  33.0272753  53.1646493  51.4048553  22.4612753  41.4546493
  51.6118553  22.2602753  42.2786493  52.1608553  22.7292753  41.1126493
  51.5468553  22.4712753  41.5256493  44.6998553  17.3602753  47.3596493
  43.8738553  17.2112753  47.5966493  44.6598553  17.3952753  46.4886493
  44.5718553  17.3432753  47.2656493  52.4268553  18.5442753  42.9286493
  51.7128553  18.0732753  43.0996493  52.2648553  18.8852753  42.1426493
  52.2978553  18.5252753  42.8376493  52.8698553  26.4882753  41.3086493
  53.3458553  25.7592753  41.2606493  52.0488553  26.2022753  41.2326493
  52.8188553  26.3382753  41.2896493  46.3408553  28.4002753  52.1476493
  45.5458553  28.3362753  52.4986493  46.4118553  29.2472753  51.9526493
  46.2338553  28.5152753  52.1706493  37.2648553  17.7582753  53.3946493
  37.1248553  18.5532753  53.0636493  36.4788553  17.5152753  53.6836493
  37.1278553  17.8402753  53.3886493  42.1708553  34.6072753  47.4646493
  42.1818553  34.6662753  48.3346493  41.7458553  33.8602753  47.3146493
  42.1098553  34.5052753  47.5706493  40.3288553  20.5022753  40.6196493
  40.4548553  20.1732753  39.8216493  39.5168553  20.2532753  40.8186493
  40.2278553  20.4172753  40.5316493  49.0858553  27.6552753  43.6636493
  49.1618553  27.9962753  44.4626493  49.2548553  26.8082753  43.7846493
  49.1218553  27.5802753  43.7996493  46.6078553  26.9292753  43.2286493
  46.3098553  26.6142753  43.9856493  47.3028553  27.4022753  43.4636493
  46.6668553  26.9522753  43.3756493  46.8298553  31.0472753  51.2556493
  47.5168553  30.9332753  51.7806493  46.9638553  31.8382753  50.9116493
  46.9508553  31.1472753  51.2826493  55.0058553  23.6562753  53.0666493
  54.1508553  23.5342753  53.1926493  55.1588553  23.2612753  52.3036493
  54.9018553  23.5792753  52.9726493  49.5188553  24.3212753  51.6426493
  49.2638553  23.6022753  52.0646493  50.3398553  24.4372753  51.9126493
  49.6028553  24.2322753  51.7446493  47.4528553  25.5112753  54.8296493
  47.7758553  26.1972753  54.3976493  46.7488553  25.8342753  55.2316493
  47.3958553  25.6602753  54.8246493  50.5368553  33.8852753  45.7586493
  50.0858553  34.5282753  46.1376493  51.2448553  33.8062753  46.2636493
  50.5748553  33.9682753  45.8896493  47.2378553  28.9752753  48.6886493
  46.5438553  29.3772753  49.0316493  47.9148553  29.4082753  49.0276493
  47.2348553  29.0982753  48.7896493  52.6148553  31.5682753  55.2686493
  53.3908553  31.1782753  55.3516493  52.1458553  31.2322753  55.9236493
  52.6598553  31.4612753  55.3776493  40.3058553  22.5132753  51.0356493
  40.6808553  23.1322753  50.5486493  40.9798553  22.0392753  51.3206493
  40.4608553  22.5352753  51.0056493  38.0808553  20.9612753  50.3106493
  38.1578553  20.7922753  49.4576493  38.8268553  21.3672753  50.5076493
  38.2018553  20.9962753  50.2136493  53.6398553  23.6012753  40.7506493
  53.7428553  23.5432753  39.8866493  54.3808553  23.2692753  41.0686493
  53.7648553  23.5442753  40.6696493  40.6348553  18.3712753  52.7216493
  40.5538553  17.5272753  52.9276493  40.3208553  18.4152753  51.9086493
  40.5768553  18.2532753  52.6316493  47.5598553  30.5662753  41.8576493
  47.3548553  31.3992753  41.6986493  46.7848553  30.1842753  41.9796493
  47.4148553  30.6332753  41.8526493  52.7418553  23.7472753  50.1066493
  52.7398553  22.8842753  50.2306493  52.8088553  24.0712753  50.9136493
  52.7518553  23.6672753  50.2436493  38.9338553  22.1232753  37.1526493
  38.2618553  22.1372753  37.7086493  39.0288553  21.2752753  36.9686493
  38.8488553  22.0002753  37.2076493  48.6208553  18.5472753  53.8886493
  48.7128553  19.2592753  54.3826493  47.9838553  18.1022753  54.2856493
  48.5398553  18.5862753  54.0206493  47.6148553  18.7372753  44.7426493
  46.9148553  19.2552753  44.6866493  47.6528553  18.3572753  43.9586493
  47.5168553  18.7582753  44.6186493  42.9218553  30.8282753  38.2666493
  43.3628553  30.9082753  39.0146493  42.1168553  30.6122753  38.5246493
  42.8678553  30.8082753  38.4156493  51.2128553  19.2532753  47.5426493
  52.0678553  19.3522753  47.6876493  50.8438553  19.8062753  48.1076493
  51.2848553  19.3502753  47.6476493  51.5168553  24.5332753  46.0336493
  52.1828553  25.0742753  46.1936493  51.1718553  24.8442753  45.2946493
  51.5638553  24.6592753  45.9486493  51.8298553  32.5992753  41.8406493
  51.6558553  31.9452753  42.3906493  52.5428553  32.3282753  41.4176493
  51.9098553  32.4622753  41.8596493  40.2508553  29.8982753  38.8676493
  40.0068553  29.5912753  39.6476493  40.2178553  29.1952753  38.3516493
  40.2098553  29.7492753  38.9066493  43.0698553  28.1432753  37.6106493
  42.2518553  27.8752753  37.7506493  43.0418553  28.9952753  37.7956493
  42.9448553  28.2302753  37.6586493  42.6698553  18.4562753  49.3696493
  41.8058553  18.5402753  49.4496493  42.8898553  17.9422753  50.0386493
  42.5748553  18.3932753  49.4806493  54.6878553  17.0912753  50.6986493
  54.6358553  17.0472753  51.5686493  55.3748553  16.5882753  50.5086493
  54.7818553  17.0112753  50.7986493  46.7728553  19.2042753  47.7436493
  46.0358553  18.7502753  47.8566493  47.3438553  18.8022753  48.2666493
  46.7478553  19.0772753  47.8376493  49.5048553  30.0522753  49.5316493
  49.7108553  30.3532753  50.3236493  49.4438553  30.7742753  49.0466493
  49.5258553  30.2032753  49.5766493  49.0388553  34.2662753  53.7776493
  48.2858553  34.2482753  53.3366493  49.2068553  35.1182753  53.8616493
  48.9528553  34.3892753  53.7246493  44.2758553  23.5332753  52.9476493
  43.9538553  22.9572753  52.3776493  43.9168553  24.2882753  52.7016493
  44.1758553  23.5592753  52.8276493  45.0718553  16.7852753  37.5746493
  45.1498553  17.0322753  36.7416493  44.3288553  17.1622753  37.8326493
  44.9738553  16.8772753  37.4896493  54.3168553  28.6912753  48.9896493
  54.2848553  27.8292753  48.8546493  53.6238553  28.9932753  48.5556493
  54.2098553  28.6082753  48.9056493  52.4218553  31.9512753  47.7866493
  52.9488553  31.8682753  47.0956493  52.0308553  31.1732753  47.8406493
  52.4418553  31.8242753  47.6926493  39.8898553  18.5392753  50.0176493
  39.5468553  17.7722753  49.7836493  39.1948553  19.0632753  50.0816493
  39.7368553  18.5032753  49.9926493  48.9358553  17.3952753  46.9946493
  49.6058553  17.9392753  47.1216493  48.4328553  17.8192753  46.4216493
  48.9608553  17.5382753  46.9286493  48.2948553  23.2032753  44.4876493
  48.8458553  22.5962753  44.7876493  47.8698553  23.4662753  45.2026493
  48.3138553  23.1522753  44.6366493  38.5428553  21.8532753  43.9736493
  38.1748553  22.1552753  44.7046493  39.0768553  21.2242753  44.2576493
  38.5668553  21.8052753  44.1236493  50.2648553  25.0342753  41.0496493
  50.3328553  24.1842753  41.2306493  49.4418553  25.1202753  40.7716493
  50.1528553  24.9212753  41.0356493  40.0168553  33.5282753  40.2596493
  39.8718553  33.6842753  39.4136493  40.8828553  33.6072753  40.3376493
  40.1238553  33.5632753  40.1466493  44.1838553  25.9252753  39.9876493
  44.2838553  26.0642753  39.1326493  45.0018553  25.8652753  40.2836493
  44.3188553  25.9362753  39.9046493  53.3438553  33.9892753  37.4676493
  53.9808553  33.8552753  38.0486493  53.0028553  33.1952753  37.3506493
  53.3878553  33.8522753  37.5356493  53.5388553  26.4072753  54.2006493
  54.1728553  26.2372753  54.7746493  53.9558553  26.8102753  53.5486493
  53.6938553  26.4422753  54.1896493  49.4188553  30.2542753  39.7896493
  49.1678553  30.1262753  40.6156493  49.1018553  29.5592753  39.3686493
  49.3348553  30.1332753  39.8496493  54.1638553  20.9712753  54.9386493
  53.9678553  21.6152753  55.4936493  53.4418553  20.4812753  54.9306493
  54.0288553  20.9942753  55.0196493  54.0628553  21.9122753  47.9096493
  53.2298553  22.1622753  47.8376493  54.0068553  21.0722753  48.1386493
  53.9318553  21.8252753  47.9326493  43.3228553  18.9002753  53.1036493
  43.5568553  18.3242753  52.4906493  42.4808553  18.7192753  53.2446493
  43.2328553  18.7882753  53.0336493  50.9498553  26.5182753  55.5556493
  51.8208553  26.4822753  55.5196493  50.7308553  26.9382753  54.8236493
  51.0468553  26.5742753  55.4426493  40.7038553  32.3432753  46.7366493
  40.6248553  31.5332753  46.4206493  40.2598553  32.8302753  46.1646493
  40.6268553  32.2952753  46.6056493  46.3048553  28.4622753  39.2196493
  47.0218553  28.1152753  38.8636493  46.2708553  29.2622753  38.8716493
  46.4058553  28.5292753  39.1156493  47.7138553  17.1032753  23.4584083
  47.4688553  17.5912753  22.7784083  48.5768553  17.0302753  23.3584083
  47.8048553  17.1642753  23.3434083  47.5228553  24.0192753  28.1294083
  46.9988553  24.6152753  28.4924083  47.9198553  23.6512753  28.8134083
  47.5038553  24.0532753  28.2844083  37.3918553  28.1592753  23.5854083
  36.9508553  28.2772753  24.3284083  37.1088553  27.3842753  23.3004083
  37.2848553  28.0622753  23.6534083  53.6668553  31.4602753  21.1004083
  54.3678553  30.9412753  21.0964083  53.0798553  31.0152753  20.6314083
  53.6838553  31.3172753  21.0304083  37.1348553  21.9512753  20.0924083
  36.3568553  22.1132753  19.7324083  37.1738553  21.0802753  20.1144083
  37.0258553  21.8462753  20.0424083  40.2738553  27.2142753  18.7644083
  39.8818553  26.8432753  18.0784083  40.1938553  26.6162753  19.3934083
  40.2038553  27.0712753  18.7554083  50.1938553  25.0862753  24.8054083
  50.2738553  25.0902753  23.9364083  49.6098553  24.4542753  24.9544083
  50.1188553  24.9932753  24.6994083  39.9008553  28.8552753  22.6644083
  40.5088553  28.6852753  23.2674083  39.1498553  28.7152753  23.0854083
  39.8798553  28.8092753  22.8154083  44.1828553  18.1902753  22.6134083
  44.1128553  18.8672753  22.0674083  44.9238553  17.8022753  22.3644083
  44.2818553  18.2332753  22.4954083  38.7918553  31.9462753  18.7414083
  39.2588553  32.0302753  18.0094083  39.2468553  31.3682753  19.2104083
  38.9278553  31.8732753  18.7024083  43.9058553  28.4192753  34.9074083
  43.6698553  28.4162753  35.7474083  43.1578553  28.2712753  34.4834083
  43.7598553  28.3962753  34.9684083  38.7778553  25.4152753  24.0424083
  38.3158553  25.0232753  23.4154083  39.4778553  24.9022753  24.1344083
  38.8128553  25.2822753  23.9634083  43.2858553  21.0252753  29.3894083
  43.9638553  21.0432753  28.8404083  43.2408553  20.1892753  29.6344083
  43.3788553  20.9042753  29.3444083  43.8878553  31.6112753  32.1704083
  44.0258553  32.3712753  31.7634083  44.6788553  31.2462753  32.1974083
  44.0248553  31.6702753  32.1144083  40.7788553  23.5152753  24.0654083
  41.5958553  23.3282753  24.3084083  40.3018553  22.9012753  24.4614083
  40.8288553  23.3972753  24.1604083  44.9828553  29.4962753  26.6754083
  45.3308553  28.6972753  26.7054083  45.6478553  30.0002753  26.4204083
  45.1328553  29.4522753  26.6424083  45.0398553  28.9452753  22.8864083
  45.3708553  28.3012753  23.3724083  45.2798553  28.7342753  22.0754083
  45.1238553  28.8192753  22.8384083  47.0078553  23.0762753  34.2254083
  46.1598553  22.9772753  34.0474083  47.0368553  23.8212753  34.6794083
  46.8868553  23.1722753  34.2664083  41.3758553  18.6092753  23.3314083
  41.0798553  19.1102753  22.6814083  42.2428553  18.6872753  23.2744083
  41.4598553  18.6952753  23.2274083  51.5658553  16.0362753  33.3394083
  51.4078553  16.8052753  32.9574083  50.7938553  15.8162753  33.6834083
  51.4278553  16.1172753  33.3344083  44.3548553  17.7512753  25.5544083
  44.4278553  18.6112753  25.6834083  44.3168553  17.6762753  24.6864083
  44.3598553  17.8672753  25.4454083  49.0278553  20.6772753  17.8534083
  48.5778553  21.3582753  18.1604083  49.1418553  20.1732753  18.5564083
  48.9788553  20.7032753  18.0024083  37.2338553  23.1762753  27.0554083
  36.9778553  24.0072753  26.9804083  36.5698553  22.7932753  27.4724083
  37.0978553  23.2422753  27.1064083  37.1438553  32.8862753  24.9554083
  36.5518553  33.4442753  24.6424083  37.5698553  32.6172753  24.2434083
  37.1198553  32.9282753  24.8044083  42.9838553  30.7302753  22.4354083
  42.4048553  30.4552753  23.0274083  43.6078553  30.1212753  22.4604083
  42.9908553  30.6002753  22.5264083  49.1268553  33.0182753  19.9574083
  49.8538553  33.4902753  20.0594083  49.3558553  32.2242753  20.2374083
  49.2688553  32.9712753  20.0144083  47.2948553  33.4102753  21.9474083
  47.5088553  33.9372753  22.6094083  48.0618553  33.2362753  21.5684083
  47.4398553  33.4622753  21.9894083  40.2628553  17.9932753  27.5464083
  39.7418553  17.3652753  27.2384083  40.8538553  17.5562753  28.0174083
  40.2738553  17.8352753  27.5704083  43.5688553  20.1262753  36.8444083
  43.6858553  19.6722753  36.1084083  43.8568553  20.9242753  36.6414083
  43.6288553  20.1772753  36.7054083  38.6888553  31.5562753  22.8864083
  39.3448553  30.9812753  22.9014083  39.0778553  32.3052753  22.6654083
  38.8438553  31.5812753  22.8564083  54.4218553  20.6502753  24.1484083
  54.0758553  21.3282753  24.5744083  53.7858553  20.0522753  24.1644083
  54.2768553  20.6622753  24.2134083  49.7338553  33.4202753  30.2524083
  50.4778553  33.8762753  30.2424083  49.6128553  33.2062753  29.4154083
  49.8258553  33.4562753  30.1274083  39.3018553  19.7232753  35.8284083
  38.5238553  19.3332753  35.7564083  39.7928553  19.3112753  35.2374083
  39.2588553  19.6042753  35.7304083  42.7378553  32.8952753  25.6824083
  43.5818553  32.9992753  25.4874083  42.4408553  33.7132753  25.7504083
  42.8188553  33.0312753  25.6634083  45.9508553  17.3662753  34.9964083
  46.1288553  16.5572753  34.7214083  45.8078553  17.8072753  34.2574083
  45.9558553  17.3122753  34.8464083  46.5448553  22.2922753  23.7694083
  46.8318553  22.0602753  22.9794083  47.2768553  22.3712753  24.2384083
  46.6948553  22.2692753  23.7224083  47.2668553  22.6312753  18.8904083
  47.5478553  23.4192753  19.1394083  46.4908553  22.7962753  18.5274083
  47.1938553  22.7722753  18.8734083  51.3078553  34.6052753  20.3574083
  51.9728553  34.4572753  19.8124083  51.6678553  34.5222753  21.1474083
  51.4598553  34.5712753  20.3934083  54.0968553  18.9732753  29.5174083
  54.8538553  19.0452753  29.0894083  54.1598553  18.2002753  29.9164083
  54.2178553  18.8702753  29.5124083  36.6498553  20.2712753  33.4144083
  36.6458553  20.8582753  34.0604083  37.2438553  20.5832753  32.8574083
  36.7368553  20.4042753  33.4274083  48.9878553  30.6052753  33.9564083
  48.9538553  30.9872753  34.7404083  49.8418553  30.5632753  33.7854083
  49.1088553  30.6552753  34.0474083  46.1258553  30.8022753  18.7064083
  45.9448553  31.3472753  19.3634083  46.8918553  31.0922753  18.4054083
  46.2118553  30.9262753  18.7594083  49.6328553  18.6982753  19.7604083
  50.1728553  18.0162753  19.8364083  49.6948553  19.0962753  20.5344083
  49.7218553  18.6562753  19.8864083  37.5868553  19.8662753  22.3294083
  37.4728553  19.0022753  22.3604083  37.1118553  20.1602753  22.9994083
  37.4998553  19.7822753  22.4324083  46.8908553  21.0742753  21.0744083
  46.3828553  20.4122753  20.8204083  46.9428553  21.5782753  20.3644083
  46.8238553  21.0512753  20.9324083  47.4398553  33.7692753  31.4544083
  48.2078553  33.6892753  31.0484083  46.8568553  33.6482753  30.8164083
  47.4668553  33.7392753  31.3004083  46.8908553  18.0152753  20.9654083
  46.4358553  17.6132753  20.3394083  47.6638553  18.1702753  20.5904083
  46.9378553  17.9792753  20.8174083  45.4888553  20.3822753  25.4874083
  45.5628553  20.9502753  24.8294083  45.6098553  20.8742753  26.1974083
  45.5168553  20.5392753  25.4954083  50.7138553  30.2172753  23.8994083
  51.4148553  29.7352753  24.0884083  50.0538553  29.6482753  23.9444083
  50.7198553  30.0622753  23.9334083  40.0968553  16.2052753  23.8354083
  40.6328553  16.8932753  23.8254083  40.0998553  15.9312753  23.0074083
  40.1758553  16.2662753  23.7114083  43.0528553  26.6382753  27.8604083
  43.2248553  26.4282753  28.6894083  42.3978553  26.1042753  27.6444083
  42.9818553  26.5282753  27.9514083  49.2808553  20.5522753  31.3754083
  49.1858553  20.8712753  32.1814083  48.6878553  19.9132753  31.3374083
  49.1788553  20.5042753  31.4894083  43.8028553  26.5762753  30.4504083
  43.8558553  27.4232753  30.6524083  43.5178553  26.2062753  31.1874083
  43.7688553  26.6462753  30.5884083  49.9798553  27.2712753  29.5804083
  49.4658553  26.8592753  30.1514083  49.8538553  28.1152753  29.7614083
  49.8858553  27.3352753  29.6914083  50.5368553  16.4962753  24.2114083
  50.5858553  16.1782753  25.0224083  50.8598553  15.8522753  23.7184083
  50.5918553  16.3542753  24.2584083  53.0008553  20.7322753  32.5194083
  53.7728553  20.5072753  32.8564083  52.5258553  20.9492753  33.2194083
  53.0448553  20.7312753  32.6724083  40.5448553  20.0152753  25.4894083
  40.8168553  19.5852753  24.7814083  40.3688553  19.3792753  26.0604083
  40.5588553  19.8582753  25.4694083  53.2328553  27.7102753  19.7074083
  53.3518553  27.4232753  20.5224083  54.0398553  27.7312753  19.3774083
  53.3688553  27.6712753  19.7794083  40.3688553  27.4422753  25.0384083
  41.2198553  27.3622753  24.8654083  40.0118553  26.7602753  24.6264083
  40.4418553  27.3292753  24.9514083  39.1358553  34.1672753  26.2754083
  38.4628553  33.6692753  26.0304083  39.5388553  34.3522753  25.5244083
  39.0958553  34.1212753  26.1284083  38.6858553  21.1172753  28.5714083
  39.5288553  21.3372753  28.5284083  38.2968553  21.6902753  28.0404083
  38.7528553  21.2342753  28.4864083  55.4668553  32.2192753  33.9614083
  54.7848553  32.5292753  33.5144083  55.0978553  31.7612753  34.6064083
  55.3108553  32.1972753  33.9904083  51.1278553  24.2472753  19.2924083
  50.9078553  24.9782753  18.8704083  50.6798553  24.2982753  20.0394083
  51.0288553  24.3622753  19.3404083  42.7368553  27.4492753  23.2734083
  43.4498553  27.9442753  23.3634083  42.9588553  26.8822753  22.6474083
  42.8748553  27.4382753  23.1944083  55.3148553  19.1082753  18.7454083
  54.6528553  18.5402753  18.7684083  55.1218553  19.6202753  18.0654083
  55.1888553  19.1002753  18.6484083  44.5398553  22.8022753  36.6894083
  44.0558553  23.3792753  37.1314083  44.5118553  23.0972753  35.8684083
  44.4638553  22.9312753  36.6334083  55.6378553  23.4862753  31.3014083
  55.8528553  22.6862753  31.0254083  54.7878553  23.5462753  31.1124083
  55.5438553  23.3772753  31.2324083  36.9588553  25.7762753  21.6964083
  36.7738553  24.9372753  21.8484083  37.6178553  25.7402753  21.1264083
  37.0288553  25.6472753  21.6344083  53.3168553  18.6662753  21.0244083
  54.0628553  18.2592753  21.2234083  53.5798553  19.3812753  20.5994083
  53.4658553  18.7122753  20.9914083  47.2598553  31.1522753  25.6004083
  46.7368553  31.7862753  25.3074083  47.5698553  30.7882753  24.8714083
  47.2278553  31.1922753  25.4494083  37.1308553  29.9402753  21.2714083
  37.6828553  30.5092753  21.6354083  36.8988553  29.4252753  21.9364083
  37.1778553  29.9482753  21.4234083  49.7708553  20.9542753  26.0974083
  50.1148553  21.1062753  26.8844083  49.3178553  20.2162753  26.2104083
  49.7548553  20.8672753  26.2304083  36.9608553  28.3892753  18.8994083
  37.7168553  27.9572753  18.9574083  36.9758553  28.9212753  19.5904083
  37.0748553  28.4042753  19.0104083  44.2468553  20.1742753  20.5544083
  44.2448553  20.0572753  19.6894083  44.0658553  21.0222753  20.6464083
  44.2198553  20.2822753  20.4404083  53.3008553  32.6012753  32.0514083
  52.6298553  33.1152753  32.2694083  53.3638553  32.7012753  31.1874083
  53.2108553  32.6922753  31.9564083  41.9848553  30.1262753  25.1864083
  42.1108553  30.9692753  25.3734083  42.6528553  29.7272753  25.5824083
  42.1028553  30.1922753  25.2724083  40.1148553  23.6092753  35.0484083
  39.5788553  23.1032753  35.5164083  40.1348553  23.2192753  34.2684083
  40.0378553  23.4762753  35.0024083  40.5998553  23.0062753  20.1884083
  40.4718553  22.5582753  20.9264083  40.0178553  22.6642753  19.6364083
  40.4948553  22.8892753  20.2164083  40.7668553  24.8362753  26.7874083
  39.9858553  24.7772753  26.4044083  40.8388553  24.0842753  27.2244083
  40.6618553  24.7172753  26.7954083  41.1968553  24.5732753  30.2554083
  41.2218553  23.8982753  29.7044083  40.5508553  25.0692753  29.9434083
  41.1058553  24.5462753  30.1284083  51.0918553  22.2862753  28.6514083
  50.4298553  22.6142753  29.1144083  51.2788553  22.9202753  28.0824083
  51.0218553  22.4282753  28.6354083  45.2968553  33.3502753  29.6474083
  45.0198553  32.7092753  29.1244083  45.0888553  34.0762753  29.2094083
  45.2258553  33.3632753  29.5054083  47.7368553  18.1922753  32.0804083
  47.8858553  17.3672753  31.8374083  48.1158553  18.2472753  32.8644083
  47.8148553  18.0782753  32.1604083  49.2848553  20.2552753  22.1624083
  49.7748553  20.9722753  22.0854083  48.4948553  20.5162753  21.8994083
  49.2408553  20.3992753  22.1124083  38.9958553  25.9282753  35.8144083
  38.9588553  26.4292753  35.1004083  39.3268553  25.1762753  35.5194083
  39.0388553  25.8902753  35.6654083  50.5988553  28.1332753  34.0724083
  51.0828553  28.8512753  34.1704083  50.9928553  27.7062753  33.4214083
  50.7288553  28.1762753  33.9904083  44.8948553  30.9782753  35.2494083
  45.2488553  30.8002753  36.0264083  44.4588553  30.2492753  35.0504083
  44.8828553  30.8442753  35.3354083  45.8668553  21.7252753  27.8874083
  46.3468553  22.4242753  28.0954083  46.2398553  21.0782753  28.3384083
  45.9928553  21.7332753  27.9844083  48.0558553  24.8942753  20.1614083
  48.0478553  25.6162753  19.6714083  47.4168553  25.0292753  20.7384083
  47.9608553  25.0212753  20.1744083  53.0278553  28.7642753  24.1424083
  53.3838553  28.4142753  24.8574083  53.0198553  28.1032753  23.5724083
  53.0798553  28.6142753  24.1634083  49.0728553  31.8302753  27.9864083
  48.4698553  31.5342753  27.4294083  49.6178553  32.2822753  27.4774083
  49.0638553  31.8532753  27.8284083  49.0858553  28.6812753  27.3864083
  48.2888553  28.9052753  27.6604083  49.3438553  28.0872753  27.9714083
  49.0058553  28.6262753  27.5134083  42.9778553  33.4932753  21.8344083
  42.8308553  32.7172753  22.2054083  43.6668553  33.3462753  21.3194083
  43.0578553  33.3562753  21.8134083  42.6488553  17.2362753  19.8224083
  42.7458553  17.1292753  20.6834083  41.9408553  17.7422753  19.7574083
  42.5588553  17.2952753  19.9404083  45.2698553  33.0092753  20.2364083
  45.8918553  33.1722753  20.8264083  45.3058553  33.7002753  19.7044083
  45.3668553  33.1352753  20.2454083  52.3458553  26.6792753  32.2324083
  52.4008553  26.8042753  31.3704083  53.0988553  26.9992753  32.5344083
  52.4648553  26.7442753  32.1494083  48.5368553  32.0282753  36.5094083
  48.7008553  32.3112753  37.3184083  48.7998553  32.6892753  36.0044083
  48.5998553  32.1682753  36.5544083  53.3778553  16.9772753  35.2194083
  52.7408553  16.5772753  34.7774083  53.4038553  16.5462753  35.9774083
  53.2878553  16.8552753  35.2654083  39.7708553  25.5432753  21.0654083
  40.0948553  24.7642753  20.8434083  40.4168553  25.9112753  21.5204083
  39.9138553  25.4822753  21.0994083  48.0768553  26.4852753  31.8324083
  47.9218553  27.0952753  32.4364083  48.6108553  25.9272753  32.2384083
  48.1328553  26.4932753  31.9814083  36.7678553  17.2042753  22.0334083
  36.8968553  16.4962753  21.5414083  36.4008553  16.8862753  22.7584083
  36.7328553  17.0522753  22.0684083  46.4608553  24.8852753  22.4904083
  46.5198553  25.5352753  23.0694083  46.2718553  24.1892753  22.9814083
  46.4418553  24.8782753  22.6484083  51.6868553  29.2142753  28.3594083
  51.2078553  29.5122753  27.6934083  51.3308553  28.4382753  28.5374083
  51.5638553  29.1432753  28.2874083  40.9568553  19.4022753  19.0024083
  40.4458553  19.4552753  18.2964083  41.7408553  19.6422753  18.7064083
  40.9968553  19.4452753  18.8544083  45.6838553  26.9322753  26.9214083
  44.8368553  26.7382753  27.0024083  46.0078553  26.7672753  27.7144083
  45.6058553  26.8792753  27.0504083  42.4358553  33.6622753  17.8074083
  42.8748553  32.9652753  18.0954083  42.6428553  34.2862753  18.3804083
  42.5318553  33.6512753  17.9344083  42.7618553  21.7962753  25.9724083
  43.6078553  21.6062753  26.0704083  42.3918553  21.0192753  25.8344083
  42.8318553  21.6532753  25.9664083  55.3788553  33.3802753  20.2994083
  56.0728553  32.9132753  20.0514083  54.8398553  32.7822753  20.6364083
  55.4018553  33.2222753  20.3124083  37.5828553  23.1342753  22.6274083
  38.0718553  22.8422753  23.2884083  37.7118553  22.5412753  22.0004083
  37.6738553  23.0032753  22.6324083  52.6178553  26.1562753  29.4784083
  52.6108553  25.3802753  29.8764083  51.7768553  26.3902753  29.4714083
  52.4928553  26.0762753  29.5364083  42.1078553  24.5682753  18.1134083
  41.4978553  24.1632753  18.5874083  41.7218553  24.6862753  17.3404083
  41.9608553  24.5252753  18.0694083  53.8738553  26.2272753  26.9154083
  53.5878553  26.6282753  27.6354083  54.7338553  26.1652753  27.0424083
  53.9588553  26.2772753  27.0404083  43.5628553  23.0292753  20.8234083
  43.8348553  23.8552753  20.8904083  42.6998553  23.1042753  20.7274083
  43.4758553  23.1622753  20.8184083  51.5358553  20.1512753  35.4554083
  51.0108553  20.6102753  35.9794083  51.1748553  19.3562753  35.4494083
  51.4048553  20.1012753  35.5314083  37.0428553  18.9992753  27.3594083
  37.0868553  19.3432753  26.5584083  37.7978553  19.2362753  27.7264083
  37.1608553  19.0852753  27.2954083  55.0048553  31.8602753  27.4444083
  55.2948553  32.1172753  26.6634083  55.6998553  31.9562753  27.9634083
  55.1508553  31.9122753  27.4054083  50.0278553  23.7202753  35.5314083
  50.1008553  23.8242753  36.3944083  49.3938553  24.2782753  35.3104083
  49.9448553  23.8182753  35.6264083  52.2958553  24.0392753  33.8964083
  52.6148553  24.8252753  34.0994083  51.9258553  23.7692753  34.6394083
  52.2888553  24.1152753  34.0364083  51.6098553  30.4632753  19.4264083
  51.9438553  29.6572753  19.4614083  50.8548553  30.3912753  19.8564083
  51.5478553  30.3332753  19.4954083  52.0918553  22.2972753  25.0854083
  51.3468553  21.9742753  25.4034083  52.0938553  23.1232753  25.3654083
  51.9818553  22.3712753  25.1734083  54.9938553  24.5812753  36.6314083
  54.9418553  24.2402753  35.8304083  55.7308553  25.0482753  36.6094083
  55.0948553  24.6002753  36.5094083  54.5318553  28.2572753  32.8374083
  55.1598553  27.7082753  32.5814083  54.4708553  28.8222753  32.1754083
  54.6158553  28.2602753  32.7014083  48.9838553  28.3382753  18.8294083
  49.6678553  27.8242753  18.6604083  48.5668553  28.3842753  18.0644083
  49.0228553  28.2692753  18.6914083  43.6658553  29.4882753  30.1334083
  43.3678553  30.0802753  30.7004083  43.7208553  29.9302753  29.3844083
  43.6298553  29.6412753  30.1064083  51.0038553  18.6272753  32.5464083
  51.7478553  19.0792753  32.4834083  50.4378553  19.0972753  32.0774083
  51.0308553  18.7642753  32.4684083  46.1818553  25.9112753  29.6244083
  46.6578553  26.2852753  30.2524083  45.3588553  26.0452753  29.8834083
  46.1308553  25.9862753  29.7554083  42.8918553  21.5142753  32.3654083
  43.0528553  20.7702753  32.7924083  42.8468553  21.2652753  31.5304083
  42.9088553  21.3672753  32.3054083  45.4458553  33.3042753  24.8524083
  45.9918553  33.9832753  24.9064083  45.0958553  33.3862753  24.0574083
  45.4748553  33.4172753  24.7424083  52.2888553  16.6072753  30.2164083
  52.0088553  17.4322753  30.1724083  53.0048553  16.6602753  30.7124083
  52.3538553  16.7372753  30.2834083  44.6438553  17.3222753  32.2454083
  45.3488553  17.6422753  31.8434083  44.8848553  16.5152753  32.4724083
  44.7828553  17.2502753  32.2194083  43.6288553  31.5322753  28.2414083
  43.0048553  32.1142753  28.0594083  43.8768553  31.2462753  27.4554083
  43.5728553  31.5762753  28.0984083  47.9378553  28.1662753  35.2304083
  48.6948553  28.4522753  34.9044083  47.3908553  28.2182753  34.5524083
  47.9688553  28.2162753  35.0814083  51.8468553  30.7162753  33.7344083
  52.1928553  30.9862753  34.4884083  52.1408553  31.2982753  33.1544083
  51.9418553  30.8422753  33.7604083  53.7098553  22.8622753  19.0734083
  54.0878553  23.5392753  18.6734083  52.8678553  23.0862753  19.1044083
  53.6408553  22.9952753  19.0184083  45.2228553  26.3082753  18.1564083
  44.4178553  26.1312753  17.8714083  45.1898553  27.1592753  18.3484083
  45.0988553  26.4072753  18.1434083  41.1528553  22.3752753  28.3064083
  41.5928553  22.2722753  27.5604083  41.6978553  22.0622753  28.9114083
  41.2978553  22.3142753  28.2854083  49.1688553  21.4772753  33.8984083
  48.5208553  21.9472753  34.2464083  49.7338553  21.3882753  34.5574083
  49.1568553  21.5332753  34.0474083  48.8568553  23.0142753  30.1964083
  49.1588553  23.4342753  30.8994083  48.8928553  22.1742753  30.4284083
  48.9068553  22.9522753  30.3344083  46.2818553  33.1812753  34.1214083
  46.7598553  32.5812753  33.7054083  45.9308553  32.7382753  34.7864083
  46.3008553  33.0272753  34.1584083  51.4048553  22.4612753  22.4484083
  51.6118553  22.2602753  23.2724083  52.1608553  22.7292753  22.1064083
  51.5468553  22.4712753  22.5194083  44.6998553  17.3602753  28.3534083
  43.8738553  17.2112753  28.5904083  44.6598553  17.3952753  27.4824083
  44.5718553  17.3432753  28.2594083  52.4268553  18.5442753  23.9224083
  51.7128553  18.0732753  24.0934083  52.2648553  18.8852753  23.1364083
  52.2978553  18.5252753  23.8314083  52.8698553  26.4882753  22.3024083
  53.3458553  25.7592753  22.2544083  52.0488553  26.2022753  22.2264083
  52.8188553  26.3382753  22.2834083  46.3408553  28.4002753  33.1414083
  45.5458553  28.3362753  33.4924083  46.4118553  29.2472753  32.9464083
  46.2338553  28.5152753  33.1644083  37.2648553  17.7582753  34.3884083
  37.1248553  18.5532753  34.0574083  36.4788553  17.5152753  34.6774083
  37.1278553  17.8402753  34.3824083  40.3288553  20.5022753  21.6134083
  40.4548553  20.1732753  20.8154083  39.5168553  20.2532753  21.8124083
  40.2278553  20.4172753  21.5254083  49.0858553  27.6552753  24.6574083
  49.1618553  27.9962753  25.4564083  49.2548553  26.8082753  24.7784083
  49.1218553  27.5802753  24.7934083  46.6078553  26.9292753  24.2224083
  46.3098553  26.6142753  24.9794083  47.3028553  27.4022753  24.4574083
  46.6668553  26.9522753  24.3694083  46.8298553  31.0472753  32.2494083
  47.5168553  30.9332753  32.7744083  46.9638553  31.8382753  31.9054083
  46.9508553  31.1472753  32.2764083  55.0058553  23.6562753  34.0604083
  54.1508553  23.5342753  34.1864083  55.1588553  23.2612753  33.2974083
  54.9018553  23.5792753  33.9664083  49.5188553  24.3212753  32.6364083
  49.2638553  23.6022753  33.0584083  50.3398553  24.4372753  32.9064083
  49.6028553  24.2322753  32.7384083  38.9348553  34.1052753  33.9004083
  38.2808553  33.5362753  33.9984083  38.5598553  34.8782753  34.0514083
  38.7828553  34.1352753  33.9374083  47.4528553  25.5112753  35.8234083
  47.7758553  26.1972753  35.3914083  46.7488553  25.8342753  36.2254083
  47.3958553  25.6602753  35.8184083  47.2378553  28.9752753  29.6824083
  46.5438553  29.3772753  30.0254083  47.9148553  29.4082753  30.0214083
  47.2348553  29.0982753  29.7834083  52.6148553  31.5682753  36.2624083
  53.3908553  31.1782753  36.3454083  52.1458553  31.2322753  36.9174083
  52.6598553  31.4612753  36.3714083  40.3058553  22.5132753  32.0294083
  40.6808553  23.1322753  31.5424083  40.9798553  22.0392753  32.3144083
  40.4608553  22.5352753  31.9994083  53.6398553  23.6012753  21.7444083
  53.7428553  23.5432753  20.8804083  54.3808553  23.2692753  22.0624083
  53.7648553  23.5442753  21.6634083  40.6348553  18.3712753  33.7154083
  40.5538553  17.5272753  33.9214083  40.3208553  18.4152753  32.9024083
  40.5768553  18.2532753  33.6254083  47.5598553  30.5662753  22.8514083
  47.3548553  31.3992753  22.6924083  46.7848553  30.1842753  22.9734083
  47.4148553  30.6332753  22.8464083  52.7418553  23.7472753  31.1004083
  52.7398553  22.8842753  31.2244083  52.8088553  24.0712753  31.9074083
  52.7518553  23.6672753  31.2374083  38.9338553  22.1232753  18.1464083
  38.2618553  22.1372753  18.7024083  39.0288553  21.2752753  17.9624083
  38.8488553  22.0002753  18.2014083  48.6208553  18.5472753  34.8824083
  48.7128553  19.2592753  35.3764083  47.9838553  18.1022753  35.2794083
  48.5398553  18.5862753  35.0144083  47.6148553  18.7372753  25.7364083
  46.9148553  19.2552753  25.6804083  47.6528553  18.3572753  24.9524083
  47.5168553  18.7582753  25.6124083  42.9218553  30.8282753  19.2604083
  43.3628553  30.9082753  20.0084083  42.1168553  30.6122753  19.5184083
  42.8678553  30.8082753  19.4094083  51.2128553  19.2532753  28.5364083
  52.0678553  19.3522753  28.6814083  50.8438553  19.8062753  29.1014083
  51.2848553  19.3502753  28.6414083  42.2408553  25.4792753  32.9134083
  41.8448553  26.2532753  32.9884083  41.8348553  25.1062753  32.2374083
  42.1228553  25.5382753  32.8244083  51.5168553  24.5332753  27.0274083
  52.1828553  25.0742753  27.1874083  51.1718553  24.8442753  26.2884083
  51.5638553  24.6592753  26.9424083  51.8298553  32.5992753  22.8344083
  51.6558553  31.9452753  23.3844083  52.5428553  32.3282753  22.4114083
  51.9098553  32.4622753  22.8534083  40.2508553  29.8982753  19.8614083
  40.0068553  29.5912753  20.6414083  40.2178553  29.1952753  19.3454083
  40.2098553  29.7492753  19.9004083  43.0698553  28.1432753  18.6044083
  42.2518553  27.8752753  18.7444083  43.0418553  28.9952753  18.7894083
  42.9448553  28.2302753  18.6524083  42.6698553  18.4562753  30.3634083
  41.8058553  18.5402753  30.4434083  42.8898553  17.9422753  31.0324083
  42.5748553  18.3932753  30.4744083  54.6878553  17.0912753  31.6924083
  54.6358553  17.0472753  32.5624083  55.3748553  16.5882753  31.5024083
  54.7818553  17.0112753  31.7924083  46.7728553  19.2042753  28.7374083
  46.0358553  18.7502753  28.8504083  47.3438553  18.8022753  29.2604083
  46.7478553  19.0772753  28.8314083  49.5048553  30.0522753  30.5254083
  49.7108553  30.3532753  31.3174083  49.4438553  30.7742753  30.0404083
  49.5258553  30.2032753  30.5704083  49.0388553  34.2662753  34.7714083
  48.2858553  34.2482753  34.3304083  49.2068553  35.1182753  34.8554083
  48.9528553  34.3892753  34.7184083  44.2758553  23.5332753  33.9414083
  43.9538553  22.9572753  33.3714083  43.9168553  24.2882753  33.6954083
  44.1758553  23.5592753  33.8214083  45.0718553  16.7852753  18.5684083
  45.1498553  17.0322753  17.7354083  44.3288553  17.1622753  18.8264083
  44.9738553  16.8772753  18.4834083  54.3168553  28.6912753  29.9834083
  54.2848553  27.8292753  29.8484083  53.6238553  28.9932753  29.5494083
  54.2098553  28.6082753  29.8994083  42.7108553  33.8892753  34.1894083
  42.7518553  34.0152753  35.0524083  43.3618553  33.3292753  34.0334083
  42.8128553  33.8252753  34.2944083  52.4218553  31.9512753  28.7804083
  52.9488553  31.8682753  28.0894083  52.0308553  31.1732753  28.8344083
  52.4418553  31.8242753  28.6864083  39.8898553  18.5392753  31.0114083
  39.5468553  17.7722753  30.7774083  39.1948553  19.0632753  31.0754083
  39.7368553  18.5032753  30.9864083  48.9358553  17.3952753  27.9884083
  49.6058553  17.9392753  28.1154083  48.4328553  17.8192753  27.4154083
  48.9608553  17.5382753  27.9224083  40.3038553  32.2722753  35.5494083
  40.8988553  32.7032753  36.0214083  39.9398553  32.8962753  35.0604083
  40.3378553  32.4282753  35.5464083  48.2948553  23.2032753  25.4814083
  48.8458553  22.5962753  25.7814083  47.8698553  23.4662753  26.1964083
  48.3138553  23.1522753  25.6304083  38.5428553  21.8532753  24.9674083
  38.1748553  22.1552753  25.6984083  39.0768553  21.2242753  25.2514083
  38.5668553  21.8052753  25.1174083  50.2648553  25.0342753  22.0434083
  50.3328553  24.1842753  22.2244083  49.4418553  25.1202753  21.7654083
  50.1528553  24.9212753  22.0294083  40.0168553  33.5282753  21.2534083
  39.8718553  33.6842753  20.4074083  40.8828553  33.6072753  21.3314083
  40.1238553  33.5632753  21.1404083  44.1838553  25.9252753  20.9814083
  44.2838553  26.0642753  20.1264083  45.0018553  25.8652753  21.2774083
  44.3188553  25.9362753  20.8984083  53.3438553  33.9892753  18.4614083
  53.9808553  33.8552753  19.0424083  53.0028553  33.1952753  18.3444083
  53.3878553  33.8522753  18.5294083  53.5388553  26.4072753  35.1944083
  54.1728553  26.2372753  35.7684083  53.9558553  26.8102753  34.5424083
  53.6938553  26.4422753  35.1834083  49.4188553  30.2542753  20.7834083
  49.1678553  30.1262753  21.6094083  49.1018553  29.5592753  20.3624083
  49.3348553  30.1332753  20.8434083  54.1638553  20.9712753  35.9324083
  53.9678553  21.6152753  36.4874083  53.4418553  20.4812753  35.9244083
  54.0288553  20.9942753  36.0134083  54.0628553  21.9122753  28.9034083
  53.2298553  22.1622753  28.8314083  54.0068553  21.0722753  29.1324083
  53.9318553  21.8252753  28.9264083  43.3228553  18.9002753  34.0974083
  43.5568553  18.3242753  33.4844083  42.4808553  18.7192753  34.2384083
  43.2328553  18.7882753  34.0274083  50.9498553  26.5182753  36.5494083
  51.8208553  26.4822753  36.5134083  50.7308553  26.9382753  35.8174083
  51.0468553  26.5742753  36.4364083  46.3048553  28.4622753  20.2134083
  47.0218553  28.1152753  19.8574083  46.2708553  29.2622753  19.8654083
  46.4058553  28.5292753  20.1094083  47.7138553  17.1032753   4.4521673
  47.4688553  17.5912753   3.7721673  48.5768553  17.0302753   4.3521673
  47.8048553  17.1642753   4.3371673  47.5228553  24.0192753   9.1231673
  46.9988553  24.6152753   9.4861673  47.9198553  23.6512753   9.8071673
  47.5038553  24.0532753   9.2781673  37.3918553  28.1592753   4.5791673
  36.9508553  28.2772753   5.3221673  37.1088553  27.3842753   4.2941673
  37.2848553  28.0622753   4.6471673  53.6668553  31.4602753   2.0941673
  54.3678553  30.9412753   2.0901673  53.0798553  31.0152753   1.6251673
  53.6838553  31.3172753   2.0241673  50.1938553  25.0862753   5.7991673
  50.2738553  25.0902753   4.9301673  49.6098553  24.4542753   5.9481673
  50.1188553  24.9932753   5.6931673  39.9008553  28.8552753   3.6581673
  40.5088553  28.6852753   4.2611673  39.1498553  28.7152753   4.0791673
  39.8798553  28.8092753   3.8091673  44.1828553  18.1902753   3.6071673
  44.1128553  18.8672753   3.0611673  44.9238553  17.8022753   3.3581673
  44.2818553  18.2332753   3.4891673  37.3318553  30.8942753  10.8341673
  37.4608553  30.6142753  11.6501673  36.7218553  30.3532753  10.5251673
  37.2608553  30.7732753  10.9091673  43.9058553  28.4192753  15.9011673
  43.6698553  28.4162753  16.7411673  43.1578553  28.2712753  15.4771673
  43.7598553  28.3962753  15.9621673  38.7778553  25.4152753   5.0361673
  38.3158553  25.0232753   4.4091673  39.4778553  24.9022753   5.1281673
  38.8128553  25.2822753   4.9571673  43.2858553  21.0252753  10.3831673
  43.9638553  21.0432753   9.8341673  43.2408553  20.1892753  10.6281673
  43.3788553  20.9042753  10.3381673  43.8878553  31.6112753  13.1641673
  44.0258553  32.3712753  12.7571673  44.6788553  31.2462753  13.1911673
  44.0248553  31.6702753  13.1081673  40.7788553  23.5152753   5.0591673
  41.5958553  23.3282753   5.3021673  40.3018553  22.9012753   5.4551673
  40.8288553  23.3972753   5.1541673  44.9828553  29.4962753   7.6691673
  45.3308553  28.6972753   7.6991673  45.6478553  30.0002753   7.4141673
  45.1328553  29.4522753   7.6361673  45.0398553  28.9452753   3.8801673
  45.3708553  28.3012753   4.3661673  45.2798553  28.7342753   3.0691673
  45.1238553  28.8192753   3.8321673  47.0078553  23.0762753  15.2191673
  46.1598553  22.9772753  15.0411673  47.0368553  23.8212753  15.6731673
  46.8868553  23.1722753  15.2601673  41.3758553  18.6092753   4.3251673
  41.0798553  19.1102753   3.6751673  42.2428553  18.6872753   4.2681673
  41.4598553  18.6952753   4.2211673  51.5658553  16.0362753  14.3331673
  51.4078553  16.8052753  13.9511673  50.7938553  15.8162753  14.6771673
  51.4278553  16.1172753  14.3281673  44.3548553  17.7512753   6.5481673
  44.4278553  18.6112753   6.6771673  44.3168553  17.6762753   5.6801673
  44.3598553  17.8672753   6.4391673  37.2338553  23.1762753   8.0491673
  36.9778553  24.0072753   7.9741673  36.5698553  22.7932753   8.4661673
  37.0978553  23.2422753   8.1001673  37.1438553  32.8862753   5.9491673
  36.5518553  33.4442753   5.6361673  37.5698553  32.6172753   5.2371673
  37.1198553  32.9282753   5.7981673  42.9838553  30.7302753   3.4291673
  42.4048553  30.4552753   4.0211673  43.6078553  30.1212753   3.4541673
  42.9908553  30.6002753   3.5201673  47.2948553  33.4102753   2.9411673
  47.5088553  33.9372753   3.6031673  48.0618553  33.2362753   2.5621673
  47.4398553  33.4622753   2.9831673  40.2628553  17.9932753   8.5401673
  39.7418553  17.3652753   8.2321673  40.8538553  17.5562753   9.0111673
  40.2738553  17.8352753   8.5641673  43.5688553  20.1262753  17.8381673
  43.6858553  19.6722753  17.1021673  43.8568553  20.9242753  17.6351673
  43.6288553  20.1772753  17.6991673  38.6888553  31.5562753   3.8801673
  39.3448553  30.9812753   3.8951673  39.0778553  32.3052753   3.6591673
  38.8438553  31.5812753   3.8501673  54.4218553  20.6502753   5.1421673
  54.0758553  21.3282753   5.5681673  53.7858553  20.0522753   5.1581673
  54.2768553  20.6622753   5.2071673  49.7338553  33.4202753  11.2461673
  50.4778553  33.8762753  11.2361673  49.6128553  33.2062753  10.4091673
  49.8258553  33.4562753  11.1211673  39.3018553  19.7232753  16.8221673
  38.5238553  19.3332753  16.7501673  39.7928553  19.3112753  16.2311673
  39.2588553  19.6042753  16.7241673  39.5068553  30.0432753   7.3801673
  39.9298553  29.6872753   6.7061673  39.8308553  29.6212753   8.0721673
  39.6168553  29.9282753   7.3831673  42.7378553  32.8952753   6.6761673
  43.5818553  32.9992753   6.4811673  42.4408553  33.7132753   6.7441673
  42.8188553  33.0312753   6.6571673  45.9508553  17.3662753  15.9901673
  46.1288553  16.5572753  15.7151673  45.8078553  17.8072753  15.2511673
  45.9558553  17.3122753  15.8401673  46.5448553  22.2922753   4.7631673
  46.8318553  22.0602753   3.9731673  47.2768553  22.3712753   5.2321673
  46.6948553  22.2692753   4.7161673  41.7358553  34.1142753  12.4161673
  42.0278553  34.0472753  13.2361673  41.1098553  33.5092753  12.3711673
  41.6868553  34.0152753  12.5311673  54.0968553  18.9732753  10.5111673
  54.8538553  19.0452753  10.0831673  54.1598553  18.2002753  10.9101673
  54.2178553  18.8702753  10.5061673  36.6498553  20.2712753  14.4081673
  36.6458553  20.8582753  15.0541673  37.2438553  20.5832753  13.8511673
  36.7368553  20.4042753  14.4211673  48.9878553  30.6052753  14.9501673
  48.9538553  30.9872753  15.7341673  49.8418553  30.5632753  14.7791673
  49.1088553  30.6552753  15.0411673  37.5868553  19.8662753   3.3231673
  37.4728553  19.0022753   3.3541673  37.1118553  20.1602753   3.9931673
  37.4998553  19.7822753   3.4261673  39.7288553  32.2762753  11.5381673
  39.0308553  31.7682753  11.6641673  39.9888553  32.0712753  10.7301673
  39.6638553  32.1712753  11.4371673  46.8908553  21.0742753   2.0681673
  46.3828553  20.4122753   1.8141673  46.9428553  21.5782753   1.3581673
  46.8238553  21.0512753   1.9261673  47.4398553  33.7692753  12.4481673
  48.2078553  33.6892753  12.0421673  46.8568553  33.6482753  11.8101673
  47.4668553  33.7392753  12.2941673  46.8908553  18.0152753   1.9591673
  46.4358553  17.6132753   1.3331673  47.6638553  18.1702753   1.5841673
  46.9378553  17.9792753   1.8111673  53.7168553  34.3722753   5.3491673
  53.2618553  35.0892753   5.5501673  53.1028553  33.8012753   5.1071673
  53.5588553  34.3942753   5.3431673  45.4888553  20.3822753   6.4811673
  45.5628553  20.9502753   5.8231673  45.6098553  20.8742753   7.1911673
  45.5168553  20.5392753   6.4891673  50.7138553  30.2172753   4.8931673
  51.4148553  29.7352753   5.0821673  50.0538553  29.6482753   4.9381673
  50.7198553  30.0622753   4.9271673  41.0898553  31.1272753  14.1051673
  41.9308553  31.1902753  13.8831673  41.0528553  31.5242753  14.8811673
  41.2088553  31.1952753  14.1871673  40.0968553  16.2052753   4.8291673
  40.6328553  16.8932753   4.8191673  40.0998553  15.9312753   4.0011673
  40.1758553  16.2662753   4.7051673  43.0528553  26.6382753   8.8541673
  43.2248553  26.4282753   9.6831673  42.3978553  26.1042753   8.6381673
  42.9818553  26.5282753   8.9451673  49.2808553  20.5522753  12.3691673
  49.1858553  20.8712753  13.1751673  48.6878553  19.9132753  12.3311673
  49.1788553  20.5042753  12.4831673  43.8028553  26.5762753  11.4441673
  43.8558553  27.4232753  11.6461673  43.5178553  26.2062753  12.1811673
  43.7688553  26.6462753  11.5821673  49.9798553  27.2712753  10.5741673
  49.4658553  26.8592753  11.1451673  49.8538553  28.1152753  10.7551673
  49.8858553  27.3352753  10.6851673  50.5368553  16.4962753   5.2051673
  50.5858553  16.1782753   6.0161673  50.8598553  15.8522753   4.7121673
  50.5918553  16.3542753   5.2521673  36.6238553  30.9472753  17.6551673
  37.3798553  31.2962753  17.9131673  36.8008553  30.0942753  17.5981673
  36.7618553  30.8722753  17.6851673  53.0008553  20.7322753  13.5131673
  53.7728553  20.5072753  13.8501673  52.5258553  20.9492753  14.2131673
  53.0448553  20.7312753  13.6661673  40.5448553  20.0152753   6.4831673
  40.8168553  19.5852753   5.7751673  40.3688553  19.3792753   7.0541673
  40.5588553  19.8582753   6.4631673  40.3688553  27.4422753   6.0321673
  41.2198553  27.3622753   5.8591673  40.0118553  26.7602753   5.6201673
  40.4418553  27.3292753   5.9451673  39.1358553  34.1672753   7.2691673
  38.4628553  33.6692753   7.0241673  39.5388553  34.3522753   6.5181673
  39.0958553  34.1212753   7.1221673  38.6858553  21.1172753   9.5651673
  39.5288553  21.3372753   9.5221673  38.2968553  21.6902753   9.0341673
  38.7528553  21.2342753   9.4801673  55.4668553  32.2192753  14.9551673
  54.7848553  32.5292753  14.5081673  55.0978553  31.7612753  15.6001673
  55.3108553  32.1972753  14.9841673  42.7368553  27.4492753   4.2671673
  43.4498553  27.9442753   4.3571673  42.9588553  26.8822753   3.6411673
  42.8748553  27.4382753   4.1881673  36.8928553  29.0922753   7.5871673
  36.2258553  29.5802753   7.8631673  37.5728553  29.6372753   7.6161673
  36.8948553  29.2442753   7.6321673  44.5398553  22.8022753  17.6831673
  44.0558553  23.3792753  18.1251673  44.5118553  23.0972753  16.8621673
  44.4638553  22.9312753  17.6271673  55.6378553  23.4862753  12.2951673
  55.8528553  22.6862753  12.0191673  54.7878553  23.5462753  12.1061673
  55.5438553  23.3772753  12.2261673  36.9588553  25.7762753   2.6901673
  36.7738553  24.9372753   2.8421673  37.6178553  25.7402753   2.1201673
  37.0288553  25.6472753   2.6281673  53.3168553  18.6662753   2.0181673
  54.0628553  18.2592753   2.2171673  53.5798553  19.3812753   1.5931673
  53.4658553  18.7122753   1.9851673  47.2598553  31.1522753   6.5941673
  46.7368553  31.7862753   6.3011673  47.5698553  30.7882753   5.8651673
  47.2278553  31.1922753   6.4431673  37.1308553  29.9402753   2.2651673
  37.6828553  30.5092753   2.6291673  36.8988553  29.4252753   2.9301673
  37.1778553  29.9482753   2.4171673  41.3348553  28.9402753   9.3541673
  41.8018553  29.2292753  10.0321673  41.9068553  28.4622753   8.9001673
  41.4888553  28.9122753   9.3871673  49.7708553  20.9542753   7.0911673
  50.1148553  21.1062753   7.8781673  49.3178553  20.2162753   7.2041673
  49.7548553  20.8672753   7.2241673  37.9008553  26.6102753   7.8981673
  38.3318553  26.4812753   7.1511673  37.6958553  27.4582753   7.8721673
  37.9338553  26.7162753   7.7841673  53.3008553  32.6012753  13.0451673
  52.6298553  33.1152753  13.2631673  53.3638553  32.7012753  12.1811673
  53.2108553  32.6922753  12.9501673  41.9848553  30.1262753   6.1801673
  42.1108553  30.9692753   6.3671673  42.6528553  29.7272753   6.5761673
  42.1028553  30.1922753   6.2661673  40.1148553  23.6092753  16.0421673
  39.5788553  23.1032753  16.5101673  40.1348553  23.2192753  15.2621673
  40.0378553  23.4762753  15.9961673  40.7668553  24.8362753   7.7811673
  39.9858553  24.7772753   7.3981673  40.8388553  24.0842753   8.2181673
  40.6618553  24.7172753   7.7891673  41.1968553  24.5732753  11.2491673
  41.2218553  23.8982753  10.6981673  40.5508553  25.0692753  10.9371673
  41.1058553  24.5462753  11.1221673  51.0918553  22.2862753   9.6451673
  50.4298553  22.6142753  10.1081673  51.2788553  22.9202753   9.0761673
  51.0218553  22.4282753   9.6291673  45.2968553  33.3502753  10.6411673
  45.0198553  32.7092753  10.1181673  45.0888553  34.0762753  10.2031673
  45.2258553  33.3632753  10.4991673  47.7368553  18.1922753  13.0741673
  47.8858553  17.3672753  12.8311673  48.1158553  18.2472753  13.8581673
  47.8148553  18.0782753  13.1541673  49.2848553  20.2552753   3.1561673
  49.7748553  20.9722753   3.0791673  48.4948553  20.5162753   2.8931673
  49.2408553  20.3992753   3.1061673  38.9958553  25.9282753  16.8081673
  38.9588553  26.4292753  16.0941673  39.3268553  25.1762753  16.5131673
  39.0388553  25.8902753  16.6591673  50.5988553  28.1332753  15.0661673
  51.0828553  28.8512753  15.1641673  50.9928553  27.7062753  14.4151673
  50.7288553  28.1762753  14.9841673  44.8948553  30.9782753  16.2431673
  45.2488553  30.8002753  17.0201673  44.4588553  30.2492753  16.0441673
  44.8828553  30.8442753  16.3291673  45.8668553  21.7252753   8.8811673
  46.3468553  22.4242753   9.0891673  46.2398553  21.0782753   9.3321673
  45.9928553  21.7332753   8.9781673  53.0278553  28.7642753   5.1361673
  53.3838553  28.4142753   5.8511673  53.0198553  28.1032753   4.5661673
  53.0798553  28.6142753   5.1571673  49.0728553  31.8302753   8.9801673
  48.4698553  31.5342753   8.4231673  49.6178553  32.2822753   8.4711673
  49.0638553  31.8532753   8.8221673  49.0858553  28.6812753   8.3801673
  48.2888553  28.9052753   8.6541673  49.3438553  28.0872753   8.9651673
  49.0058553  28.6262753   8.5071673  42.9778553  33.4932753   2.8281673
  42.8308553  32.7172753   3.1991673  43.6668553  33.3462753   2.3131673
  43.0578553  33.3562753   2.8071673  52.3458553  26.6792753  13.2261673
  52.4008553  26.8042753  12.3641673  53.0988553  26.9992753  13.5281673
  52.4648553  26.7442753  13.1431673  48.5368553  32.0282753  17.5031673
  48.7008553  32.3112753  18.3121673  48.7998553  32.6892753  16.9981673
  48.5998553  32.1682753  17.5481673  53.3778553  16.9772753  16.2131673
  52.7408553  16.5772753  15.7711673  53.4038553  16.5462753  16.9711673
  53.2878553  16.8552753  16.2591673  39.7708553  25.5432753   2.0591673
  40.0948553  24.7642753   1.8371673  40.4168553  25.9112753   2.5141673
  39.9138553  25.4822753   2.0931673  48.0768553  26.4852753  12.8261673
  47.9218553  27.0952753  13.4301673  48.6108553  25.9272753  13.2321673
  48.1328553  26.4932753  12.9751673  36.7678553  17.2042753   3.0271673
  36.8968553  16.4962753   2.5351673  36.4008553  16.8862753   3.7521673
  36.7328553  17.0522753   3.0621673  46.4608553  24.8852753   3.4841673
  46.5198553  25.5352753   4.0631673  46.2718553  24.1892753   3.9751673
  46.4418553  24.8782753   3.6421673  51.6868553  29.2142753   9.3531673
  51.2078553  29.5122753   8.6871673  51.3308553  28.4382753   9.5311673
  51.5638553  29.1432753   9.2811673  45.6838553  26.9322753   7.9151673
  44.8368553  26.7382753   7.9961673  46.0078553  26.7672753   8.7081673
  45.6058553  26.8792753   8.0441673  39.5318553  26.6252753  10.2311673
  40.2538553  27.1132753  10.1941673  39.2618553  26.5952753   9.4021673
  39.5988553  26.6932753  10.1031673  42.7618553  21.7962753   6.9661673
  43.6078553  21.6062753   7.0641673  42.3918553  21.0192753   6.8281673
  42.8318553  21.6532753   6.9601673  37.5828553  23.1342753   3.6211673
  38.0718553  22.8422753   4.2821673  37.7118553  22.5412753   2.9941673
  37.6738553  23.0032753   3.6261673  52.6178553  26.1562753  10.4721673
  52.6108553  25.3802753  10.8701673  51.7768553  26.3902753  10.4651673
  52.4928553  26.0762753  10.5301673  38.9268553  27.6772753  14.5091673
  38.5058553  27.1592753  13.9481673  38.5748553  28.4632753  14.3661673
  38.8128553  27.7172753  14.4051673  53.8738553  26.2272753   7.9091673
  53.5878553  26.6282753   8.6291673  54.7338553  26.1652753   8.0361673
  53.9588553  26.2772753   8.0341673  43.5628553  23.0292753   1.8171673
  43.8348553  23.8552753   1.8841673  42.6998553  23.1042753   1.7211673
  43.4758553  23.1622753   1.8121673  51.5358553  20.1512753  16.4491673
  51.0108553  20.6102753  16.9731673  51.1748553  19.3562753  16.4431673
  51.4048553  20.1012753  16.5251673  37.0428553  18.9992753   8.3531673
  37.0868553  19.3432753   7.5521673  37.7978553  19.2362753   8.7201673
  37.1608553  19.0852753   8.2891673  55.0048553  31.8602753   8.4381673
  55.2948553  32.1172753   7.6571673  55.6998553  31.9562753   8.9571673
  55.1508553  31.9122753   8.3991673  50.0278553  23.7202753  16.5251673
  50.1008553  23.8242753  17.3881673  49.3938553  24.2782753  16.3041673
  49.9448553  23.8182753  16.6201673  52.2958553  24.0392753  14.8901673
  52.6148553  24.8252753  15.0931673  51.9258553  23.7692753  15.6331673
  52.2888553  24.1152753  15.0301673  52.0918553  22.2972753   6.0791673
  51.3468553  21.9742753   6.3971673  52.0938553  23.1232753   6.3591673
  51.9818553  22.3712753   6.1671673  54.9938553  24.5812753  17.6251673
  54.9418553  24.2402753  16.8241673  55.7308553  25.0482753  17.6031673
  55.0948553  24.6002753  17.5031673  54.5318553  28.2572753  13.8311673
  55.1598553  27.7082753  13.5751673  54.4708553  28.8222753  13.1691673
  54.6158553  28.2602753  13.6951673  43.6658553  29.4882753  11.1271673
  43.3678553  30.0802753  11.6941673  43.7208553  29.9302753  10.3781673
  43.6298553  29.6412753  11.1001673  41.6448553  28.4382753  14.5251673
  40.8388553  28.1482753  14.6921673  41.5558553  29.3062753  14.5311673
  41.5128553  28.5232753  14.5501673  51.0038553  18.6272753  13.5401673
  51.7478553  19.0792753  13.4771673  50.4378553  19.0972753  13.0711673
  51.0308553  18.7642753  13.4621673  46.1818553  25.9112753  10.6181673
  46.6578553  26.2852753  11.2461673  45.3588553  26.0452753  10.8771673
  46.1308553  25.9862753  10.7491673  42.8918553  21.5142753  13.3591673
  43.0528553  20.7702753  13.7861673  42.8468553  21.2652753  12.5241673
  42.9088553  21.3672753  13.2991673  45.4458553  33.3042753   5.8461673
  45.9918553  33.9832753   5.9001673  45.0958553  33.3862753   5.0511673
  45.4748553  33.4172753   5.7361673  52.2888553  16.6072753  11.2101673
  52.0088553  17.4322753  11.1661673  53.0048553  16.6602753  11.7061673
  52.3538553  16.7372753  11.2771673  44.6438553  17.3222753  13.2391673
  45.3488553  17.6422753  12.8371673  44.8848553  16.5152753  13.4661673
  44.7828553  17.2502753  13.2131673  43.6288553  31.5322753   9.2351673
  43.0048553  32.1142753   9.0531673  43.8768553  31.2462753   8.4491673
  43.5728553  31.5762753   9.0921673  47.9378553  28.1662753  16.2241673
  48.6948553  28.4522753  15.8981673  47.3908553  28.2182753  15.5461673
  47.9688553  28.2162753  16.0751673  51.8468553  30.7162753  14.7281673
  52.1928553  30.9862753  15.4821673  52.1408553  31.2982753  14.1481673
  51.9418553  30.8422753  14.7541673  41.1528553  22.3752753   9.3001673
  41.5928553  22.2722753   8.5541673  41.6978553  22.0622753   9.9051673
  41.2978553  22.3142753   9.2791673  49.1688553  21.4772753  14.8921673
  48.5208553  21.9472753  15.2401673  49.7338553  21.3882753  15.5511673
  49.1568553  21.5332753  15.0411673  48.8568553  23.0142753  11.1901673
  49.1588553  23.4342753  11.8931673  48.8928553  22.1742753  11.4221673
  48.9068553  22.9522753  11.3281673  46.2818553  33.1812753  15.1151673
  46.7598553  32.5812753  14.6991673  45.9308553  32.7382753  15.7801673
  46.3008553  33.0272753  15.1521673  51.4048553  22.4612753   3.4421673
  51.6118553  22.2602753   4.2661673  52.1608553  22.7292753   3.1001673
  51.5468553  22.4712753   3.5131673  44.6998553  17.3602753   9.3471673
  43.8738553  17.2112753   9.5841673  44.6598553  17.3952753   8.4761673
  44.5718553  17.3432753   9.2531673  52.4268553  18.5442753   4.9161673
  51.7128553  18.0732753   5.0871673  52.2648553  18.8852753   4.1301673
  52.2978553  18.5252753   4.8251673  52.8698553  26.4882753   3.2961673
  53.3458553  25.7592753   3.2481673  52.0488553  26.2022753   3.2201673
  52.8188553  26.3382753   3.2771673  46.3408553  28.4002753  14.1351673
  45.5458553  28.3362753  14.4861673  46.4118553  29.2472753  13.9401673
  46.2338553  28.5152753  14.1581673  37.2648553  17.7582753  15.3821673
  37.1248553  18.5532753  15.0511673  36.4788553  17.5152753  15.6711673
  37.1278553  17.8402753  15.3761673  42.1708553  34.6072753   9.4521673
  42.1818553  34.6662753  10.3221673  41.7458553  33.8602753   9.3021673
  42.1098553  34.5052753   9.5581673  40.3288553  20.5022753   2.6071673
  40.4548553  20.1732753   1.8091673  39.5168553  20.2532753   2.8061673
  40.2278553  20.4172753   2.5191673  49.0858553  27.6552753   5.6511673
  49.1618553  27.9962753   6.4501673  49.2548553  26.8082753   5.7721673
  49.1218553  27.5802753   5.7871673  46.6078553  26.9292753   5.2161673
  46.3098553  26.6142753   5.9731673  47.3028553  27.4022753   5.4511673
  46.6668553  26.9522753   5.3631673  46.8298553  31.0472753  13.2431673
  47.5168553  30.9332753  13.7681673  46.9638553  31.8382753  12.8991673
  46.9508553  31.1472753  13.2701673  55.0058553  23.6562753  15.0541673
  54.1508553  23.5342753  15.1801673  55.1588553  23.2612753  14.2911673
  54.9018553  23.5792753  14.9601673  49.5188553  24.3212753  13.6301673
  49.2638553  23.6022753  14.0521673  50.3398553  24.4372753  13.9001673
  49.6028553  24.2322753  13.7321673  38.9348553  34.1052753  14.8941673
  38.2808553  33.5362753  14.9921673  38.5598553  34.8782753  15.0451673
  38.7828553  34.1352753  14.9311673  47.4528553  25.5112753  16.8171673
  47.7758553  26.1972753  16.3851673  46.7488553  25.8342753  17.2191673
  47.3958553  25.6602753  16.8121673  50.5368553  33.8852753   7.7461673
  50.0858553  34.5282753   8.1251673  51.2448553  33.8062753   8.2511673
  50.5748553  33.9682753   7.8771673  47.2378553  28.9752753  10.6761673
  46.5438553  29.3772753  11.0191673  47.9148553  29.4082753  11.0151673
  47.2348553  29.0982753  10.7771673  52.6148553  31.5682753  17.2561673
  53.3908553  31.1782753  17.3391673  52.1458553  31.2322753  17.9111673
  52.6598553  31.4612753  17.3651673  40.3058553  22.5132753  13.0231673
  40.6808553  23.1322753  12.5361673  40.9798553  22.0392753  13.3081673
  40.4608553  22.5352753  12.9931673  38.0808553  20.9612753  12.2981673
  38.1578553  20.7922753  11.4451673  38.8268553  21.3672753  12.4951673
  38.2018553  20.9962753  12.2011673  53.6398553  23.6012753   2.7381673
  53.7428553  23.5432753   1.8741673  54.3808553  23.2692753   3.0561673
  53.7648553  23.5442753   2.6571673  40.6348553  18.3712753  14.7091673
  40.5538553  17.5272753  14.9151673  40.3208553  18.4152753  13.8961673
  40.5768553  18.2532753  14.6191673  47.5598553  30.5662753   3.8451673
  47.3548553  31.3992753   3.6861673  46.7848553  30.1842753   3.9671673
  47.4148553  30.6332753   3.8401673  52.7418553  23.7472753  12.0941673
  52.7398553  22.8842753  12.2181673  52.8088553  24.0712753  12.9011673
  52.7518553  23.6672753  12.2311673  37.4778553  26.1872753  12.5221673
  37.7978553  26.4062753  11.7411673  37.3778553  25.3222753  12.4671673
  37.5098553  26.0922753  12.3991673  48.6208553  18.5472753  15.8761673
  48.7128553  19.2592753  16.3701673  47.9838553  18.1022753  16.2731673
  48.5398553  18.5862753  16.0081673  47.6148553  18.7372753   6.7301673
  46.9148553  19.2552753   6.6741673  47.6528553  18.3572753   5.9461673
  47.5168553  18.7582753   6.6061673  51.2128553  19.2532753   9.5301673
  52.0678553  19.3522753   9.6751673  50.8438553  19.8062753  10.0951673
  51.2848553  19.3502753   9.6351673  42.2408553  25.4792753  13.9071673
  41.8448553  26.2532753  13.9821673  41.8348553  25.1062753  13.2311673
  42.1228553  25.5382753  13.8181673  51.5168553  24.5332753   8.0211673
  52.1828553  25.0742753   8.1811673  51.1718553  24.8442753   7.2821673
  51.5638553  24.6592753   7.9361673  51.8298553  32.5992753   3.8281673
  51.6558553  31.9452753   4.3781673  52.5428553  32.3282753   3.4051673
  51.9098553  32.4622753   3.8471673  42.6698553  18.4562753  11.3571673
  41.8058553  18.5402753  11.4371673  42.8898553  17.9422753  12.0261673
  42.5748553  18.3932753  11.4681673  54.6878553  17.0912753  12.6861673
  54.6358553  17.0472753  13.5561673  55.3748553  16.5882753  12.4961673
  54.7818553  17.0112753  12.7861673  46.7728553  19.2042753   9.7311673
  46.0358553  18.7502753   9.8441673  47.3438553  18.8022753  10.2541673
  46.7478553  19.0772753   9.8251673  49.5048553  30.0522753  11.5191673
  49.7108553  30.3532753  12.3111673  49.4438553  30.7742753  11.0341673
  49.5258553  30.2032753  11.5641673  49.0388553  34.2662753  15.7651673
  48.2858553  34.2482753  15.3241673  49.2068553  35.1182753  15.8491673
  48.9528553  34.3892753  15.7121673  44.2758553  23.5332753  14.9351673
  43.9538553  22.9572753  14.3651673  43.9168553  24.2882753  14.6891673
  44.1758553  23.5592753  14.8151673  54.3168553  28.6912753  10.9771673
  54.2848553  27.8292753  10.8421673  53.6238553  28.9932753  10.5431673
  54.2098553  28.6082753  10.8931673  42.7108553  33.8892753  15.1831673
  42.7518553  34.0152753  16.0461673  43.3618553  33.3292753  15.0271673
  42.8128553  33.8252753  15.2881673  52.4218553  31.9512753   9.7741673
  52.9488553  31.8682753   9.0831673  52.0308553  31.1732753   9.8281673
  52.4418553  31.8242753   9.6801673  39.8898553  18.5392753  12.0051673
  39.5468553  17.7722753  11.7711673  39.1948553  19.0632753  12.0691673
  39.7368553  18.5032753  11.9801673  48.9358553  17.3952753   8.9821673
  49.6058553  17.9392753   9.1091673  48.4328553  17.8192753   8.4091673
  48.9608553  17.5382753   8.9161673  40.3038553  32.2722753  16.5431673
  40.8988553  32.7032753  17.0151673  39.9398553  32.8962753  16.0541673
  40.3378553  32.4282753  16.5401673  48.2948553  23.2032753   6.4751673
  48.8458553  22.5962753   6.7751673  47.8698553  23.4662753   7.1901673
  48.3138553  23.1522753   6.6241673  38.5428553  21.8532753   5.9611673
  38.1748553  22.1552753   6.6921673  39.0768553  21.2242753   6.2451673
  38.5668553  21.8052753   6.1111673  38.2308553  30.2612753  13.4721673
  37.6568553  30.6772753  13.9811673  38.9638553  30.7262753  13.5671673
  38.2548553  30.3912753  13.5611673  50.2648553  25.0342753   3.0371673
  50.3328553  24.1842753   3.2181673  49.4418553  25.1202753   2.7591673
  50.1528553  24.9212753   3.0231673  40.0168553  33.5282753   2.2471673
  39.8718553  33.6842753   1.4011673  40.8828553  33.6072753   2.3251673
  40.1238553  33.5632753   2.1341673  53.5388553  26.4072753  16.1881673
  54.1728553  26.2372753  16.7621673  53.9558553  26.8102753  15.5361673
  53.6938553  26.4422753  16.1771673  49.4188553  30.2542753   1.7771673
  49.1678553  30.1262753   2.6031673  49.1018553  29.5592753   1.3561673
  49.3348553  30.1332753   1.8371673  54.1638553  20.9712753  16.9261673
  53.9678553  21.6152753  17.4811673  53.4418553  20.4812753  16.9181673
  54.0288553  20.9942753  17.0071673  54.0628553  21.9122753   9.8971673
  53.2298553  22.1622753   9.8251673  54.0068553  21.0722753  10.1261673
  53.9318553  21.8252753   9.9201673  43.3228553  18.9002753  15.0911673
  43.5568553  18.3242753  14.4781673  42.4808553  18.7192753  15.2321673
  43.2328553  18.7882753  15.0211673  50.9498553  26.5182753  17.5431673
  51.8208553  26.4822753  17.5071673  50.7308553  26.9382753  16.8111673
  51.0468553  26.5742753  17.4301673  40.7038553  32.3432753   8.7241673
  40.6248553  31.5332753   8.4081673  40.2598553  32.8302753   8.1521673
  40.6268553  32.2952753   8.5931673  38.2758553  34.5872753  12.3051673
  38.7688553  34.5312753  13.0231673  38.4638553  33.8542753  11.8701673
  38.3768553  34.4702753  12.3471673  47.5228553   5.5411673  85.1481313
  46.9988553   6.1371673  85.5111313  47.9198553   5.1731673  85.8321313
  47.5038553   5.5751673  85.3031313  37.3918553   9.6811673  80.6041313
  36.9508553   9.7991673  81.3471313  37.1088553   8.9061673  80.3191313
  37.2848553   9.5841673  80.6721313  53.6668553  12.9821673  78.1191313
  54.3678553  12.4631673  78.1151313  53.0798553  12.5371673  77.6501313
  53.6838553  12.8391673  78.0491313  37.1348553   3.4731673  77.1111313
  36.3568553   3.6351673  76.7511313  37.1738553   2.6021673  77.1331313
  37.0258553   3.3681673  77.0611313  40.2738553   8.7361673  75.7831313
  39.8818553   8.3651673  75.0971313  40.1938553   8.1381673  76.4121313
  40.2038553   8.5931673  75.7741313  50.1938553   6.6081673  81.8241313
  50.2738553   6.6121673  80.9551313  49.6098553   5.9761673  81.9731313
  50.1188553   6.5151673  81.7181313  39.9008553  10.3771673  79.6831313
  40.5088553  10.2071673  80.2861313  39.1498553  10.2371673  80.1041313
  39.8798553  10.3311673  79.8341313  38.7918553  13.4681673  75.7601313
  39.2588553  13.5521673  75.0281313  39.2468553  12.8901673  76.2291313
  38.9278553  13.3951673  75.7211313  37.3318553  12.4161673  86.8591313
  37.4608553  12.1361673  87.6751313  36.7218553  11.8751673  86.5501313
  37.2608553  12.2951673  86.9341313  38.7778553   6.9371673  81.0611313
  38.3158553   6.5451673  80.4341313  39.4778553   6.4241673  81.1531313
  38.8128553   6.8041673  80.9821313  43.8878553  13.1331673  89.1891313
  44.0258553  13.8931673  88.7821313  44.6788553  12.7681673  89.2161313
  44.0248553  13.1921673  89.1331313  40.7788553   5.0371673  81.0841313
  41.5958553   4.8501673  81.3271313  40.3018553   4.4231673  81.4801313
  40.8288553   4.9191673  81.1791313  44.9828553  11.0181673  83.6941313
  45.3308553  10.2191673  83.7241313  45.6478553  11.5221673  83.4391313
  45.1328553  10.9741673  83.6611313  45.0398553  10.4671673  79.9051313
  45.3708553   9.8231673  80.3911313  45.2798553  10.2561673  79.0941313
  45.1238553  10.3411673  79.8571313  37.2338553   4.6981673  84.0741313
  36.9778553   5.5291673  83.9991313  36.5698553   4.3151673  84.4911313
  37.0978553   4.7641673  84.1251313  37.1438553  14.4081673  81.9741313
  36.5518553  14.9661673  81.6611313  37.5698553  14.1391673  81.2621313
  37.1198553  14.4501673  81.8231313  42.9838553  12.2521673  79.4541313
  42.4048553  11.9771673  80.0461313  43.6078553  11.6431673  79.4791313
  42.9908553  12.1221673  79.5451313  49.1268553  14.5401673  76.9761313
  49.8538553  15.0121673  77.0781313  49.3558553  13.7461673  77.2561313
  49.2688553  14.4931673  77.0331313  47.2948553  14.9321673  78.9661313
  47.5088553  15.4591673  79.6281313  48.0618553  14.7581673  78.5871313
  47.4398553  14.9841673  79.0081313  38.6888553  13.0781673  79.9051313
  39.3448553  12.5031673  79.9201313  39.0778553  13.8271673  79.6841313
  38.8438553  13.1031673  79.8751313  49.7338553  14.9421673  87.2711313
  50.4778553  15.3981673  87.2611313  49.6128553  14.7281673  86.4341313
  49.8258553  14.9781673  87.1461313  39.5068553  11.5651673  83.4051313
  39.9298553  11.2091673  82.7311313  39.8308553  11.1431673  84.0971313
  39.6168553  11.4501673  83.4081313  42.7378553  14.4171673  82.7011313
  43.5818553  14.5211673  82.5061313  42.4408553  15.2351673  82.7691313
  42.8188553  14.5531673  82.6821313  46.5448553   3.8141673  80.7881313
  46.8318553   3.5821673  79.9981313  47.2768553   3.8931673  81.2571313
  46.6948553   3.7911673  80.7411313  47.2668553   4.1531673  75.9091313
  47.5478553   4.9411673  76.1581313  46.4908553   4.3181673  75.5461313
  47.1938553   4.2941673  75.8921313  51.3078553  16.1271673  77.3761313
  51.9728553  15.9791673  76.8311313  51.6678553  16.0441673  78.1661313
  51.4598553  16.0931673  77.4121313  41.7358553  15.6361673  88.4411313
  42.0278553  15.5691673  89.2611313  41.1098553  15.0311673  88.3961313
  41.6868553  15.5371673  88.5561313  36.6498553   1.7931673  90.4331313
  36.6458553   2.3801673  91.0791313  37.2438553   2.1051673  89.8761313
  36.7368553   1.9261673  90.4461313  46.1258553  12.3241673  75.7251313
  45.9448553  12.8691673  76.3821313  46.8918553  12.6141673  75.4241313
  46.2118553  12.4481673  75.7781313  39.7288553  13.7981673  87.5631313
  39.0308553  13.2901673  87.6891313  39.9888553  13.5931673  86.7551313
  39.6638553  13.6931673  87.4621313  46.8908553   2.5961673  78.0931313
  46.3828553   1.9341673  77.8391313  46.9428553   3.1001673  77.3831313
  46.8238553   2.5731673  77.9511313  47.4398553  15.2911673  88.4731313
  48.2078553  15.2111673  88.0671313  46.8568553  15.1701673  87.8351313
  47.4668553  15.2611673  88.3191313  53.7168553  15.8941673  81.3741313
  53.2618553  16.6111673  81.5751313  53.1028553  15.3231673  81.1321313
  53.5588553  15.9161673  81.3681313  45.4888553   1.9041673  82.5061313
  45.5628553   2.4721673  81.8481313  45.6098553   2.3961673  83.2161313
  45.5168553   2.0611673  82.5141313  50.7138553  11.7391673  80.9181313
  51.4148553  11.2571673  81.1071313  50.0538553  11.1701673  80.9631313
  50.7198553  11.5841673  80.9521313  41.0898553  12.6491673  90.1301313
  41.9308553  12.7121673  89.9081313  41.0528553  13.0461673  90.9061313
  41.2088553  12.7171673  90.2121313  43.0528553   8.1601673  84.8791313
  43.2248553   7.9501673  85.7081313  42.3978553   7.6261673  84.6631313
  42.9818553   8.0501673  84.9701313  43.8028553   8.0981673  87.4691313
  43.8558553   8.9451673  87.6711313  43.5178553   7.7281673  88.2061313
  43.7688553   8.1681673  87.6071313  49.9798553   8.7931673  86.5991313
  49.4658553   8.3811673  87.1701313  49.8538553   9.6371673  86.7801313
  49.8858553   8.8571673  86.7101313  53.0008553   2.2541673  89.5381313
  53.7728553   2.0291673  89.8751313  52.5258553   2.4711673  90.2381313
  53.0448553   2.2531673  89.6911313  53.2328553   9.2321673  76.7261313
  53.3518553   8.9451673  77.5411313  54.0398553   9.2531673  76.3961313
  53.3688553   9.1931673  76.7981313  40.3688553   8.9641673  82.0571313
  41.2198553   8.8841673  81.8841313  40.0118553   8.2821673  81.6451313
  40.4418553   8.8511673  81.9701313  39.1358553  15.6891673  83.2941313
  38.4628553  15.1911673  83.0491313  39.5388553  15.8741673  82.5431313
  39.0958553  15.6431673  83.1471313  38.6858553   2.6391673  85.5901313
  39.5288553   2.8591673  85.5471313  38.2968553   3.2121673  85.0591313
  38.7528553   2.7561673  85.5051313  51.1278553   5.7691673  76.3111313
  50.9078553   6.5001673  75.8891313  50.6798553   5.8201673  77.0581313
  51.0288553   5.8841673  76.3591313  42.7368553   8.9711673  80.2921313
  43.4498553   9.4661673  80.3821313  42.9588553   8.4041673  79.6661313
  42.8748553   8.9601673  80.2131313  36.8928553  10.6141673  83.6121313
  36.2258553  11.1021673  83.8881313  37.5728553  11.1591673  83.6411313
  36.8948553  10.7661673  83.6571313  55.6378553   5.0081673  88.3201313
  55.8528553   4.2081673  88.0441313  54.7878553   5.0681673  88.1311313
  55.5438553   4.8991673  88.2511313  36.9588553   7.2981673  78.7151313
  36.7738553   6.4591673  78.8671313  37.6178553   7.2621673  78.1451313
  37.0288553   7.1691673  78.6531313  47.2598553  12.6741673  82.6191313
  46.7368553  13.3081673  82.3261313  47.5698553  12.3101673  81.8901313
  47.2278553  12.7141673  82.4681313  37.1308553  11.4621673  78.2901313
  37.6828553  12.0311673  78.6541313  36.8988553  10.9471673  78.9551313
  37.1778553  11.4701673  78.4421313  41.3348553  10.4621673  85.3791313
  41.8018553  10.7511673  86.0571313  41.9068553   9.9841673  84.9251313
  41.4888553  10.4341673  85.4121313  36.9608553   9.9111673  75.9181313
  37.7168553   9.4791673  75.9761313  36.9758553  10.4431673  76.6091313
  37.0748553   9.9261673  76.0291313  37.9008553   8.1321673  83.9231313
  38.3318553   8.0031673  83.1761313  37.6958553   8.9801673  83.8971313
  37.9338553   8.2381673  83.8091313  53.3008553  14.1231673  89.0701313
  52.6298553  14.6371673  89.2881313  53.3638553  14.2231673  88.2061313
  53.2108553  14.2141673  88.9751313  41.9848553  11.6481673  82.2051313
  42.1108553  12.4911673  82.3921313  42.6528553  11.2491673  82.6011313
  42.1028553  11.7141673  82.2911313  40.5998553   4.5281673  77.2071313
  40.4718553   4.0801673  77.9451313  40.0178553   4.1861673  76.6551313
  40.4948553   4.4111673  77.2351313  40.7668553   6.3581673  83.8061313
  39.9858553   6.2991673  83.4231313  40.8388553   5.6061673  84.2431313
  40.6618553   6.2391673  83.8141313  41.1968553   6.0951673  87.2741313
  41.2218553   5.4201673  86.7231313  40.5508553   6.5911673  86.9621313
  41.1058553   6.0681673  87.1471313  51.0918553   3.8081673  85.6701313
  50.4298553   4.1361673  86.1331313  51.2788553   4.4421673  85.1011313
  51.0218553   3.9501673  85.6541313  45.2968553  14.8721673  86.6661313
  45.0198553  14.2311673  86.1431313  45.0888553  15.5981673  86.2281313
  45.2258553  14.8851673  86.5241313  49.2848553   1.7771673  79.1811313
  49.7748553   2.4941673  79.1041313  48.4948553   2.0381673  78.9181313
  49.2408553   1.9211673  79.1311313  50.5988553   9.6551673  91.0911313
  51.0828553  10.3731673  91.1891313  50.9928553   9.2281673  90.4401313
  50.7288553   9.6981673  91.0091313  45.8668553   3.2471673  84.9061313
  46.3468553   3.9461673  85.1141313  46.2398553   2.6001673  85.3571313
  45.9928553   3.2551673  85.0031313  48.0558553   6.4161673  77.1801313
  48.0478553   7.1381673  76.6901313  47.4168553   6.5511673  77.7571313
  47.9608553   6.5431673  77.1931313  53.0278553  10.2861673  81.1611313
  53.3838553   9.9361673  81.8761313  53.0198553   9.6251673  80.5911313
  53.0798553  10.1361673  81.1821313  49.0728553  13.3521673  85.0051313
  48.4698553  13.0561673  84.4481313  49.6178553  13.8041673  84.4961313
  49.0638553  13.3751673  84.8471313  49.0858553  10.2031673  84.4051313
  48.2888553  10.4271673  84.6791313  49.3438553   9.6091673  84.9901313
  49.0058553  10.1481673  84.5321313  42.9778553  15.0151673  78.8531313
  42.8308553  14.2391673  79.2241313  43.6668553  14.8681673  78.3381313
  43.0578553  14.8781673  78.8321313  45.2698553  14.5311673  77.2551313
  45.8918553  14.6941673  77.8451313  45.3058553  15.2221673  76.7231313
  45.3668553  14.6571673  77.2641313  52.3458553   8.2011673  89.2511313
  52.4008553   8.3261673  88.3891313  53.0988553   8.5211673  89.5531313
  52.4648553   8.2661673  89.1681313  39.7708553   7.0651673  78.0841313
  40.0948553   6.2861673  77.8621313  40.4168553   7.4331673  78.5391313
  39.9138553   7.0041673  78.1181313  48.0768553   8.0071673  88.8511313
  47.9218553   8.6171673  89.4551313  48.6108553   7.4491673  89.2571313
  48.1328553   8.0151673  89.0001313  46.4608553   6.4071673  79.5091313
  46.5198553   7.0571673  80.0881313  46.2718553   5.7111673  80.0001313
  46.4418553   6.4001673  79.6671313  51.6868553  10.7361673  85.3781313
  51.2078553  11.0341673  84.7121313  51.3308553   9.9601673  85.5561313
  51.5638553  10.6651673  85.3061313  45.6838553   8.4541673  83.9401313
  44.8368553   8.2601673  84.0211313  46.0078553   8.2891673  84.7331313
  45.6058553   8.4011673  84.0691313  42.4358553  15.1841673  74.8261313
  42.8748553  14.4871673  75.1141313  42.6428553  15.8081673  75.3991313
  42.5318553  15.1731673  74.9531313  39.5318553   8.1471673  86.2561313
  40.2538553   8.6351673  86.2191313  39.2618553   8.1171673  85.4271313
  39.5988553   8.2151673  86.1281313  42.7618553   3.3181673  82.9911313
  43.6078553   3.1281673  83.0891313  42.3918553   2.5411673  82.8531313
  42.8318553   3.1751673  82.9851313  55.3788553  14.9021673  77.3181313
  56.0728553  14.4351673  77.0701313  54.8398553  14.3041673  77.6551313
  55.4018553  14.7441673  77.3311313  37.5828553   4.6561673  79.6461313
  38.0718553   4.3641673  80.3071313  37.7118553   4.0631673  79.0191313
  37.6738553   4.5251673  79.6511313  52.6178553   7.6781673  86.4971313
  52.6108553   6.9021673  86.8951313  51.7768553   7.9121673  86.4901313
  52.4928553   7.5981673  86.5551313  42.1078553   6.0901673  75.1321313
  41.4978553   5.6851673  75.6061313  41.7218553   6.2081673  74.3591313
  41.9608553   6.0471673  75.0881313  38.9268553   9.1991673  90.5341313
  38.5058553   8.6811673  89.9731313  38.5748553   9.9851673  90.3911313
  38.8128553   9.2391673  90.4301313  53.8738553   7.7491673  83.9341313
  53.5878553   8.1501673  84.6541313  54.7338553   7.6871673  84.0611313
  53.9588553   7.7991673  84.0591313  43.5628553   4.5511673  77.8421313
  43.8348553   5.3771673  77.9091313  42.6998553   4.6261673  77.7461313
  43.4758553   4.6841673  77.8371313  55.0048553  13.3821673  84.4631313
  55.2948553  13.6391673  83.6821313  55.6998553  13.4781673  84.9821313
  55.1508553  13.4341673  84.4241313  51.6098553  11.9851673  76.4451313
  51.9438553  11.1791673  76.4801313  50.8548553  11.9131673  76.8751313
  51.5478553  11.8551673  76.5141313  52.0918553   3.8191673  82.1041313
  51.3468553   3.4961673  82.4221313  52.0938553   4.6451673  82.3841313
  51.9818553   3.8931673  82.1921313  54.5318553   9.7791673  89.8561313
  55.1598553   9.2301673  89.6001313  54.4708553  10.3441673  89.1941313
  54.6158553   9.7821673  89.7201313  48.9838553   9.8601673  75.8481313
  49.6678553   9.3461673  75.6791313  48.5668553   9.9061673  75.0831313
  49.0228553   9.7911673  75.7101313  43.6658553  11.0101673  87.1521313
  43.3678553  11.6021673  87.7191313  43.7208553  11.4521673  86.4031313
  43.6298553  11.1631673  87.1251313  41.6448553   9.9601673  90.5501313
  40.8388553   9.6701673  90.7171313  41.5558553  10.8281673  90.5561313
  41.5128553  10.0451673  90.5751313  46.1818553   7.4331673  86.6431313
  46.6578553   7.8071673  87.2711313  45.3588553   7.5671673  86.9021313
  46.1308553   7.5081673  86.7741313  42.8918553   3.0361673  89.3841313
  43.0528553   2.2921673  89.8111313  42.8468553   2.7871673  88.5491313
  42.9088553   2.8891673  89.3241313  45.4458553  14.8261673  81.8711313
  45.9918553  15.5051673  81.9251313  45.0958553  14.9081673  81.0761313
  45.4748553  14.9391673  81.7611313  43.6288553  13.0541673  85.2601313
  43.0048553  13.6361673  85.0781313  43.8768553  12.7681673  84.4741313
  43.5728553  13.0981673  85.1171313  53.7098553   4.3841673  76.0921313
  54.0878553   5.0611673  75.6921313  52.8678553   4.6081673  76.1231313
  53.6408553   4.5171673  76.0371313  45.2228553   7.8301673  75.1751313
  44.4178553   7.6531673  74.8901313  45.1898553   8.6811673  75.3671313
  45.0988553   7.9291673  75.1621313  41.1528553   3.8971673  85.3251313
  41.5928553   3.7941673  84.5791313  41.6978553   3.5841673  85.9301313
  41.2978553   3.8361673  85.3041313  48.8568553   4.5361673  87.2151313
  49.1588553   4.9561673  87.9181313  48.8928553   3.6961673  87.4471313
  48.9068553   4.4741673  87.3531313  51.4048553   3.9831673  79.4671313
  51.6118553   3.7821673  80.2911313  52.1608553   4.2511673  79.1251313
  51.5468553   3.9931673  79.5381313  52.8698553   8.0101673  79.3211313
  53.3458553   7.2811673  79.2731313  52.0488553   7.7241673  79.2451313
  52.8188553   7.8601673  79.3021313  46.3408553   9.9221673  90.1601313
  45.5458553   9.8581673  90.5111313  46.4118553  10.7691673  89.9651313
  46.2338553  10.0371673  90.1831313  42.1708553  16.1291673  85.4771313
  42.1818553  16.1881673  86.3471313  41.7458553  15.3821673  85.3271313
  42.1098553  16.0271673  85.5831313  49.0858553   9.1771673  81.6761313
  49.1618553   9.5181673  82.4751313  49.2548553   8.3301673  81.7971313
  49.1218553   9.1021673  81.8121313  46.6078553   8.4511673  81.2411313
  46.3098553   8.1361673  81.9981313  47.3028553   8.9241673  81.4761313
  46.6668553   8.4741673  81.3881313  46.8298553  12.5691673  89.2681313
  47.5168553  12.4551673  89.7931313  46.9638553  13.3601673  88.9241313
  46.9508553  12.6691673  89.2951313  55.0058553   5.1781673  91.0791313
  54.1508553   5.0561673  91.2051313  55.1588553   4.7831673  90.3161313
  54.9018553   5.1011673  90.9851313  49.5188553   5.8431673  89.6551313
  49.2638553   5.1241673  90.0771313  50.3398553   5.9591673  89.9251313
  49.6028553   5.7541673  89.7571313  38.9348553  15.6271673  90.9191313
  38.2808553  15.0581673  91.0171313  38.5598553  16.4001673  91.0701313
  38.7828553  15.6571673  90.9561313  50.5368553  15.4071673  83.7711313
  50.0858553  16.0501673  84.1501313  51.2448553  15.3281673  84.2761313
  50.5748553  15.4901673  83.9021313  47.2378553  10.4971673  86.7011313
  46.5438553  10.8991673  87.0441313  47.9148553  10.9301673  87.0401313
  47.2348553  10.6201673  86.8021313  40.3058553   4.0351673  89.0481313
  40.6808553   4.6541673  88.5611313  40.9798553   3.5611673  89.3331313
  40.4608553   4.0571673  89.0181313  38.0808553   2.4831673  88.3231313
  38.1578553   2.3141673  87.4701313  38.8268553   2.8891673  88.5201313
  38.2018553   2.5181673  88.2261313  53.6398553   5.1231673  78.7631313
  53.7428553   5.0651673  77.8991313  54.3808553   4.7911673  79.0811313
  53.7648553   5.0661673  78.6821313  47.5598553  12.0881673  79.8701313
  47.3548553  12.9211673  79.7111313  46.7848553  11.7061673  79.9921313
  47.4148553  12.1551673  79.8651313  52.7418553   5.2691673  88.1191313
  52.7398553   4.4061673  88.2431313  52.8088553   5.5931673  88.9261313
  52.7518553   5.1891673  88.2561313  37.4778553   7.7091673  88.5471313
  37.7978553   7.9281673  87.7661313  37.3778553   6.8441673  88.4921313
  37.5098553   7.6141673  88.4241313  38.9338553   3.6451673  75.1651313
  38.2618553   3.6591673  75.7211313  39.0288553   2.7971673  74.9811313
  38.8488553   3.5221673  75.2201313  42.9218553  12.3501673  76.2791313
  43.3628553  12.4301673  77.0271313  42.1168553  12.1341673  76.5371313
  42.8678553  12.3301673  76.4281313  42.2408553   7.0011673  89.9321313
  41.8448553   7.7751673  90.0071313  41.8348553   6.6281673  89.2561313
  42.1228553   7.0601673  89.8431313  51.5168553   6.0551673  84.0461313
  52.1828553   6.5961673  84.2061313  51.1718553   6.3661673  83.3071313
  51.5638553   6.1811673  83.9611313  51.8298553  14.1211673  79.8531313
  51.6558553  13.4671673  80.4031313  52.5428553  13.8501673  79.4301313
  51.9098553  13.9841673  79.8721313  40.2508553  11.4201673  76.8801313
  40.0068553  11.1131673  77.6601313  40.2178553  10.7171673  76.3641313
  40.2098553  11.2711673  76.9191313  43.0698553   9.6651673  75.6231313
  42.2518553   9.3971673  75.7631313  43.0418553  10.5171673  75.8081313
  42.9448553   9.7521673  75.6711313  49.5048553  11.5741673  87.5441313
  49.7108553  11.8751673  88.3361313  49.4438553  12.2961673  87.0591313
  49.5258553  11.7251673  87.5891313  44.2758553   5.0551673  90.9601313
  43.9538553   4.4791673  90.3901313  43.9168553   5.8101673  90.7141313
  44.1758553   5.0811673  90.8401313  54.3168553  10.2131673  87.0021313
  54.2848553   9.3511673  86.8671313  53.6238553  10.5151673  86.5681313
  54.2098553  10.1301673  86.9181313  52.4218553  13.4731673  85.7991313
  52.9488553  13.3901673  85.1081313  52.0308553  12.6951673  85.8531313
  52.4418553  13.3461673  85.7051313  48.2948553   4.7251673  82.5001313
  48.8458553   4.1181673  82.8001313  47.8698553   4.9881673  83.2151313
  48.3138553   4.6741673  82.6491313  38.5428553   3.3751673  81.9861313
  38.1748553   3.6771673  82.7171313  39.0768553   2.7461673  82.2701313
  38.5668553   3.3271673  82.1361313  38.2308553  11.7831673  89.4971313
  37.6568553  12.1991673  90.0061313  38.9638553  12.2481673  89.5921313
  38.2548553  11.9131673  89.5861313  50.2648553   6.5561673  79.0621313
  50.3328553   5.7061673  79.2431313  49.4418553   6.6421673  78.7841313
  50.1528553   6.4431673  79.0481313  40.0168553  15.0501673  78.2721313
  39.8718553  15.2061673  77.4261313  40.8828553  15.1291673  78.3501313
  40.1238553  15.0851673  78.1591313  44.1838553   7.4471673  78.0001313
  44.2838553   7.5861673  77.1451313  45.0018553   7.3871673  78.2961313
  44.3188553   7.4581673  77.9171313  53.3438553  15.5111673  75.4801313
  53.9808553  15.3771673  76.0611313  53.0028553  14.7171673  75.3631313
  53.3878553  15.3741673  75.5481313  49.4188553  11.7761673  77.8021313
  49.1678553  11.6481673  78.6281313  49.1018553  11.0811673  77.3811313
  49.3348553  11.6551673  77.8621313  54.0628553   3.4341673  85.9221313
  53.2298553   3.6841673  85.8501313  54.0068553   2.5941673  86.1511313
  53.9318553   3.3471673  85.9451313  40.7038553  13.8651673  84.7491313
  40.6248553  13.0551673  84.4331313  40.2598553  14.3521673  84.1771313
  40.6268553  13.8171673  84.6181313  46.3048553   9.9841673  77.2321313
  47.0218553   9.6371673  76.8761313  46.2708553  10.7841673  76.8841313
  46.4058553  10.0511673  77.1281313  38.2758553  16.1091673  88.3301313
  38.7688553  16.0531673  89.0481313  38.4638553  15.3761673  87.8951313
  38.3768553  15.9921673  88.3721313  47.5228553   5.5411673  66.1418903
  46.9988553   6.1371673  66.5048903  47.9198553   5.1731673  66.8258903
  47.5038553   5.5751673  66.2968903  37.3918553   9.6811673  61.5978903
  36.9508553   9.7991673  62.3408903  37.1088553   8.9061673  61.3128903
  37.2848553   9.5841673  61.6658903  53.6668553  12.9821673  59.1128903
  54.3678553  12.4631673  59.1088903  53.0798553  12.5371673  58.6438903
  53.6838553  12.8391673  59.0428903  37.1348553   3.4731673  58.1048903
  36.3568553   3.6351673  57.7448903  37.1738553   2.6021673  58.1268903
  37.0258553   3.3681673  58.0548903  40.2738553   8.7361673  56.7768903
  39.8818553   8.3651673  56.0908903  40.1938553   8.1381673  57.4058903
  40.2038553   8.5931673  56.7678903  50.1938553   6.6081673  62.8178903
  50.2738553   6.6121673  61.9488903  49.6098553   5.9761673  62.9668903
  50.1188553   6.5151673  62.7118903  39.9008553  10.3771673  60.6768903
  40.5088553  10.2071673  61.2798903  39.1498553  10.2371673  61.0978903
  39.8798553  10.3311673  60.8278903  38.7918553  13.4681673  56.7538903
  39.2588553  13.5521673  56.0218903  39.2468553  12.8901673  57.2228903
  38.9278553  13.3951673  56.7148903  37.3318553  12.4161673  67.8528903
  37.4608553  12.1361673  68.6688903  36.7218553  11.8751673  67.5438903
  37.2608553  12.2951673  67.9278903  43.9058553   9.9411673  72.9198903
  43.6698553   9.9381673  73.7598903  43.1578553   9.7931673  72.4958903
  43.7598553   9.9181673  72.9808903  38.7778553   6.9371673  62.0548903
  38.3158553   6.5451673  61.4278903  39.4778553   6.4241673  62.1468903
  38.8128553   6.8041673  61.9758903  43.8878553  13.1331673  70.1828903
  44.0258553  13.8931673  69.7758903  44.6788553  12.7681673  70.2098903
  44.0248553  13.1921673  70.1268903  40.7788553   5.0371673  62.0778903
  41.5958553   4.8501673  62.3208903  40.3018553   4.4231673  62.4738903
  40.8288553   4.9191673  62.1728903  44.9828553  11.0181673  64.6878903
  45.3308553  10.2191673  64.7178903  45.6478553  11.5221673  64.4328903
  45.1328553  10.9741673  64.6548903  45.0398553  10.4671673  60.8988903
  45.3708553   9.8231673  61.3848903  45.2798553  10.2561673  60.0878903
  45.1238553  10.3411673  60.8508903  47.0078553   4.5981673  72.2378903
  46.1598553   4.4991673  72.0598903  47.0368553   5.3431673  72.6918903
  46.8868553   4.6941673  72.2788903  37.2338553   4.6981673  65.0678903
  36.9778553   5.5291673  64.9928903  36.5698553   4.3151673  65.4848903
  37.0978553   4.7641673  65.1188903  37.1438553  14.4081673  62.9678903
  36.5518553  14.9661673  62.6548903  37.5698553  14.1391673  62.2558903
  37.1198553  14.4501673  62.8168903  42.9838553  12.2521673  60.4478903
  42.4048553  11.9771673  61.0398903  43.6078553  11.6431673  60.4728903
  42.9908553  12.1221673  60.5388903  49.1268553  14.5401673  57.9698903
  49.8538553  15.0121673  58.0718903  49.3558553  13.7461673  58.2498903
  49.2688553  14.4931673  58.0268903  47.2948553  14.9321673  59.9598903
  47.5088553  15.4591673  60.6218903  48.0618553  14.7581673  59.5808903
  47.4398553  14.9841673  60.0018903  38.6888553  13.0781673  60.8988903
  39.3448553  12.5031673  60.9138903  39.0778553  13.8271673  60.6778903
  38.8438553  13.1031673  60.8688903  49.7338553  14.9421673  68.2648903
  50.4778553  15.3981673  68.2548903  49.6128553  14.7281673  67.4278903
  49.8258553  14.9781673  68.1398903  39.5068553  11.5651673  64.3988903
  39.9298553  11.2091673  63.7248903  39.8308553  11.1431673  65.0908903
  39.6168553  11.4501673  64.4018903  42.7378553  14.4171673  63.6948903
  43.5818553  14.5211673  63.4998903  42.4408553  15.2351673  63.7628903
  42.8188553  14.5531673  63.6758903  46.5448553   3.8141673  61.7818903
  46.8318553   3.5821673  60.9918903  47.2768553   3.8931673  62.2508903
  46.6948553   3.7911673  61.7348903  47.2668553   4.1531673  56.9028903
  47.5478553   4.9411673  57.1518903  46.4908553   4.3181673  56.5398903
  47.1938553   4.2941673  56.8858903  51.3078553  16.1271673  58.3698903
  51.9728553  15.9791673  57.8248903  51.6678553  16.0441673  59.1598903
  51.4598553  16.0931673  58.4058903  41.7358553  15.6361673  69.4348903
  42.0278553  15.5691673  70.2548903  41.1098553  15.0311673  69.3898903
  41.6868553  15.5371673  69.5498903  36.6498553   1.7931673  71.4268903
  36.6458553   2.3801673  72.0728903  37.2438553   2.1051673  70.8698903
  36.7368553   1.9261673  71.4398903  48.9878553  12.1271673  71.9688903
  48.9538553  12.5091673  72.7528903  49.8418553  12.0851673  71.7978903
  49.1088553  12.1771673  72.0598903  46.1258553  12.3241673  56.7188903
  45.9448553  12.8691673  57.3758903  46.8918553  12.6141673  56.4178903
  46.2118553  12.4481673  56.7718903  39.7288553  13.7981673  68.5568903
  39.0308553  13.2901673  68.6828903  39.9888553  13.5931673  67.7488903
  39.6638553  13.6931673  68.4558903  46.8908553   2.5961673  59.0868903
  46.3828553   1.9341673  58.8328903  46.9428553   3.1001673  58.3768903
  46.8238553   2.5731673  58.9448903  47.4398553  15.2911673  69.4668903
  48.2078553  15.2111673  69.0608903  46.8568553  15.1701673  68.8288903
  47.4668553  15.2611673  69.3128903  53.7168553  15.8941673  62.3678903
  53.2618553  16.6111673  62.5688903  53.1028553  15.3231673  62.1258903
  53.5588553  15.9161673  62.3618903  45.4888553   1.9041673  63.4998903
  45.5628553   2.4721673  62.8418903  45.6098553   2.3961673  64.2098903
  45.5168553   2.0611673  63.5078903  50.7138553  11.7391673  61.9118903
  51.4148553  11.2571673  62.1008903  50.0538553  11.1701673  61.9568903
  50.7198553  11.5841673  61.9458903  41.0898553  12.6491673  71.1238903
  41.9308553  12.7121673  70.9018903  41.0528553  13.0461673  71.8998903
  41.2088553  12.7171673  71.2058903  43.0528553   8.1601673  65.8728903
  43.2248553   7.9501673  66.7018903  42.3978553   7.6261673  65.6568903
  42.9818553   8.0501673  65.9638903  43.8028553   8.0981673  68.4628903
  43.8558553   8.9451673  68.6648903  43.5178553   7.7281673  69.1998903
  43.7688553   8.1681673  68.6008903  49.9798553   8.7931673  67.5928903
  49.4658553   8.3811673  68.1638903  49.8538553   9.6371673  67.7738903
  49.8858553   8.8571673  67.7038903  36.6238553  12.4691673  74.6738903
  37.3798553  12.8181673  74.9318903  36.8008553  11.6161673  74.6168903
  36.7618553  12.3941673  74.7038903  53.0008553   2.2541673  70.5318903
  53.7728553   2.0291673  70.8688903  52.5258553   2.4711673  71.2318903
  53.0448553   2.2531673  70.6848903  53.2328553   9.2321673  57.7198903
  53.3518553   8.9451673  58.5348903  54.0398553   9.2531673  57.3898903
  53.3688553   9.1931673  57.7918903  40.3688553   8.9641673  63.0508903
  41.2198553   8.8841673  62.8778903  40.0118553   8.2821673  62.6388903
  40.4418553   8.8511673  62.9638903  39.1358553  15.6891673  64.2878903
  38.4628553  15.1911673  64.0428903  39.5388553  15.8741673  63.5368903
  39.0958553  15.6431673  64.1408903  38.6858553   2.6391673  66.5838903
  39.5288553   2.8591673  66.5408903  38.2968553   3.2121673  66.0528903
  38.7528553   2.7561673  66.4988903  55.4668553  13.7411673  71.9738903
  54.7848553  14.0511673  71.5268903  55.0978553  13.2831673  72.6188903
  55.3108553  13.7191673  72.0028903  51.1278553   5.7691673  57.3048903
  50.9078553   6.5001673  56.8828903  50.6798553   5.8201673  58.0518903
  51.0288553   5.8841673  57.3528903  42.7368553   8.9711673  61.2858903
  43.4498553   9.4661673  61.3758903  42.9588553   8.4041673  60.6598903
  42.8748553   8.9601673  61.2068903  36.8928553  10.6141673  64.6058903
  36.2258553  11.1021673  64.8818903  37.5728553  11.1591673  64.6348903
  36.8948553  10.7661673  64.6508903  44.5398553   4.3241673  74.7018903
  44.0558553   4.9011673  75.1438903  44.5118553   4.6191673  73.8808903
  44.4638553   4.4531673  74.6458903  55.6378553   5.0081673  69.3138903
  55.8528553   4.2081673  69.0378903  54.7878553   5.0681673  69.1248903
  55.5438553   4.8991673  69.2448903  36.9588553   7.2981673  59.7088903
  36.7738553   6.4591673  59.8608903  37.6178553   7.2621673  59.1388903
  37.0288553   7.1691673  59.6468903  47.2598553  12.6741673  63.6128903
  46.7368553  13.3081673  63.3198903  47.5698553  12.3101673  62.8838903
  47.2278553  12.7141673  63.4618903  37.1308553  11.4621673  59.2838903
  37.6828553  12.0311673  59.6478903  36.8988553  10.9471673  59.9488903
  37.1778553  11.4701673  59.4358903  41.3348553  10.4621673  66.3728903
  41.8018553  10.7511673  67.0508903  41.9068553   9.9841673  65.9188903
  41.4888553  10.4341673  66.4058903  36.9608553   9.9111673  56.9118903
  37.7168553   9.4791673  56.9698903  36.9758553  10.4431673  57.6028903
  37.0748553   9.9261673  57.0228903  37.9008553   8.1321673  64.9168903
  38.3318553   8.0031673  64.1698903  37.6958553   8.9801673  64.8908903
  37.9338553   8.2381673  64.8028903  53.3008553  14.1231673  70.0638903
  52.6298553  14.6371673  70.2818903  53.3638553  14.2231673  69.1998903
  53.2108553  14.2141673  69.9688903  41.9848553  11.6481673  63.1988903
  42.1108553  12.4911673  63.3858903  42.6528553  11.2491673  63.5948903
  42.1028553  11.7141673  63.2848903  40.1148553   5.1311673  73.0608903
  39.5788553   4.6251673  73.5288903  40.1348553   4.7411673  72.2808903
  40.0378553   4.9981673  73.0148903  40.5998553   4.5281673  58.2008903
  40.4718553   4.0801673  58.9388903  40.0178553   4.1861673  57.6488903
  40.4948553   4.4111673  58.2288903  40.7668553   6.3581673  64.7998903
  39.9858553   6.2991673  64.4168903  40.8388553   5.6061673  65.2368903
  40.6618553   6.2391673  64.8078903  41.1968553   6.0951673  68.2678903
  41.2218553   5.4201673  67.7168903  40.5508553   6.5911673  67.9558903
  41.1058553   6.0681673  68.1408903  51.0918553   3.8081673  66.6638903
  50.4298553   4.1361673  67.1268903  51.2788553   4.4421673  66.0948903
  51.0218553   3.9501673  66.6478903  45.2968553  14.8721673  67.6598903
  45.0198553  14.2311673  67.1368903  45.0888553  15.5981673  67.2218903
  45.2258553  14.8851673  67.5178903  49.2848553   1.7771673  60.1748903
  49.7748553   2.4941673  60.0978903  48.4948553   2.0381673  59.9118903
  49.2408553   1.9211673  60.1248903  38.9958553   7.4501673  73.8268903
  38.9588553   7.9511673  73.1128903  39.3268553   6.6981673  73.5318903
  39.0388553   7.4121673  73.6778903  50.5988553   9.6551673  72.0848903
  51.0828553  10.3731673  72.1828903  50.9928553   9.2281673  71.4338903
  50.7288553   9.6981673  72.0028903  44.8948553  12.5001673  73.2618903
  45.2488553  12.3221673  74.0388903  44.4588553  11.7711673  73.0628903
  44.8828553  12.3661673  73.3478903  45.8668553   3.2471673  65.8998903
  46.3468553   3.9461673  66.1078903  46.2398553   2.6001673  66.3508903
  45.9928553   3.2551673  65.9968903  48.0558553   6.4161673  58.1738903
  48.0478553   7.1381673  57.6838903  47.4168553   6.5511673  58.7508903
  47.9608553   6.5431673  58.1868903  53.0278553  10.2861673  62.1548903
  53.3838553   9.9361673  62.8698903  53.0198553   9.6251673  61.5848903
  53.0798553  10.1361673  62.1758903  49.0728553  13.3521673  65.9988903
  48.4698553  13.0561673  65.4418903  49.6178553  13.8041673  65.4898903
  49.0638553  13.3751673  65.8408903  49.0858553  10.2031673  65.3988903
  48.2888553  10.4271673  65.6728903  49.3438553   9.6091673  65.9838903
  49.0058553  10.1481673  65.5258903  42.9778553  15.0151673  59.8468903
  42.8308553  14.2391673  60.2178903  43.6668553  14.8681673  59.3318903
  43.0578553  14.8781673  59.8258903  45.2698553  14.5311673  58.2488903
  45.8918553  14.6941673  58.8388903  45.3058553  15.2221673  57.7168903
  45.3668553  14.6571673  58.2578903  52.3458553   8.2011673  70.2448903
  52.4008553   8.3261673  69.3828903  53.0988553   8.5211673  70.5468903
  52.4648553   8.2661673  70.1618903  48.5368553  13.5501673  74.5218903
  48.7008553  13.8331673  75.3308903  48.7998553  14.2111673  74.0168903
  48.5998553  13.6901673  74.5668903  39.7708553   7.0651673  59.0778903
  40.0948553   6.2861673  58.8558903  40.4168553   7.4331673  59.5328903
  39.9138553   7.0041673  59.1118903  48.0768553   8.0071673  69.8448903
  47.9218553   8.6171673  70.4488903  48.6108553   7.4491673  70.2508903
  48.1328553   8.0151673  69.9938903  46.4608553   6.4071673  60.5028903
  46.5198553   7.0571673  61.0818903  46.2718553   5.7111673  60.9938903
  46.4418553   6.4001673  60.6608903  51.6868553  10.7361673  66.3718903
  51.2078553  11.0341673  65.7058903  51.3308553   9.9601673  66.5498903
  51.5638553  10.6651673  66.2998903  45.6838553   8.4541673  64.9338903
  44.8368553   8.2601673  65.0148903  46.0078553   8.2891673  65.7268903
  45.6058553   8.4011673  65.0628903  42.4358553  15.1841673  55.8198903
  42.8748553  14.4871673  56.1078903  42.6428553  15.8081673  56.3928903
  42.5318553  15.1731673  55.9468903  39.5318553   8.1471673  67.2498903
  40.2538553   8.6351673  67.2128903  39.2618553   8.1171673  66.4208903
  39.5988553   8.2151673  67.1218903  42.7618553   3.3181673  63.9848903
  43.6078553   3.1281673  64.0828903  42.3918553   2.5411673  63.8468903
  42.8318553   3.1751673  63.9788903  55.3788553  14.9021673  58.3118903
  56.0728553  14.4351673  58.0638903  54.8398553  14.3041673  58.6488903
  55.4018553  14.7441673  58.3248903  37.5828553   4.6561673  60.6398903
  38.0718553   4.3641673  61.3008903  37.7118553   4.0631673  60.0128903
  37.6738553   4.5251673  60.6448903  52.6178553   7.6781673  67.4908903
  52.6108553   6.9021673  67.8888903  51.7768553   7.9121673  67.4838903
  52.4928553   7.5981673  67.5488903  42.1078553   6.0901673  56.1258903
  41.4978553   5.6851673  56.5998903  41.7218553   6.2081673  55.3528903
  41.9608553   6.0471673  56.0818903  38.9268553   9.1991673  71.5278903
  38.5058553   8.6811673  70.9668903  38.5748553   9.9851673  71.3848903
  38.8128553   9.2391673  71.4238903  53.8738553   7.7491673  64.9278903
  53.5878553   8.1501673  65.6478903  54.7338553   7.6871673  65.0548903
  53.9588553   7.7991673  65.0528903  43.5628553   4.5511673  58.8358903
  43.8348553   5.3771673  58.9028903  42.6998553   4.6261673  58.7398903
  43.4758553   4.6841673  58.8308903  55.0048553  13.3821673  65.4568903
  55.2948553  13.6391673  64.6758903  55.6998553  13.4781673  65.9758903
  55.1508553  13.4341673  65.4178903  50.0278553   5.2421673  73.5438903
  50.1008553   5.3461673  74.4068903  49.3938553   5.8001673  73.3228903
  49.9448553   5.3401673  73.6388903  52.2958553   5.5611673  71.9088903
  52.6148553   6.3471673  72.1118903  51.9258553   5.2911673  72.6518903
  52.2888553   5.6371673  72.0488903  51.6098553  11.9851673  57.4388903
  51.9438553  11.1791673  57.4738903  50.8548553  11.9131673  57.8688903
  51.5478553  11.8551673  57.5078903  52.0918553   3.8191673  63.0978903
  51.3468553   3.4961673  63.4158903  52.0938553   4.6451673  63.3778903
  51.9818553   3.8931673  63.1858903  54.9938553   6.1031673  74.6438903
  54.9418553   5.7621673  73.8428903  55.7308553   6.5701673  74.6218903
  55.0948553   6.1221673  74.5218903  54.5318553   9.7791673  70.8498903
  55.1598553   9.2301673  70.5938903  54.4708553  10.3441673  70.1878903
  54.6158553   9.7821673  70.7138903  48.9838553   9.8601673  56.8418903
  49.6678553   9.3461673  56.6728903  48.5668553   9.9061673  56.0768903
  49.0228553   9.7911673  56.7038903  43.6658553  11.0101673  68.1458903
  43.3678553  11.6021673  68.7128903  43.7208553  11.4521673  67.3968903
  43.6298553  11.1631673  68.1188903  41.6448553   9.9601673  71.5438903
  40.8388553   9.6701673  71.7108903  41.5558553  10.8281673  71.5498903
  41.5128553  10.0451673  71.5688903  46.1818553   7.4331673  67.6368903
  46.6578553   7.8071673  68.2648903  45.3588553   7.5671673  67.8958903
  46.1308553   7.5081673  67.7678903  42.8918553   3.0361673  70.3778903
  43.0528553   2.2921673  70.8048903  42.8468553   2.7871673  69.5428903
  42.9088553   2.8891673  70.3178903  45.4458553  14.8261673  62.8648903
  45.9918553  15.5051673  62.9188903  45.0958553  14.9081673  62.0698903
  45.4748553  14.9391673  62.7548903  43.6288553  13.0541673  66.2538903
  43.0048553  13.6361673  66.0718903  43.8768553  12.7681673  65.4678903
  43.5728553  13.0981673  66.1108903  47.9378553   9.6881673  73.2428903
  48.6948553   9.9741673  72.9168903  47.3908553   9.7401673  72.5648903
  47.9688553   9.7381673  73.0938903  51.8468553  12.2381673  71.7468903
  52.1928553  12.5081673  72.5008903  52.1408553  12.8201673  71.1668903
  51.9418553  12.3641673  71.7728903  53.7098553   4.3841673  57.0858903
  54.0878553   5.0611673  56.6858903  52.8678553   4.6081673  57.1168903
  53.6408553   4.5171673  57.0308903  45.2228553   7.8301673  56.1688903
  44.4178553   7.6531673  55.8838903  45.1898553   8.6811673  56.3608903
  45.0988553   7.9291673  56.1558903  41.1528553   3.8971673  66.3188903
  41.5928553   3.7941673  65.5728903  41.6978553   3.5841673  66.9238903
  41.2978553   3.8361673  66.2978903  49.1688553   2.9991673  71.9108903
  48.5208553   3.4691673  72.2588903  49.7338553   2.9101673  72.5698903
  49.1568553   3.0551673  72.0598903  48.8568553   4.5361673  68.2088903
  49.1588553   4.9561673  68.9118903  48.8928553   3.6961673  68.4408903
  48.9068553   4.4741673  68.3468903  46.2818553  14.7031673  72.1338903
  46.7598553  14.1031673  71.7178903  45.9308553  14.2601673  72.7988903
  46.3008553  14.5491673  72.1708903  51.4048553   3.9831673  60.4608903
  51.6118553   3.7821673  61.2848903  52.1608553   4.2511673  60.1188903
  51.5468553   3.9931673  60.5318903  52.8698553   8.0101673  60.3148903
  53.3458553   7.2811673  60.2668903  52.0488553   7.7241673  60.2388903
  52.8188553   7.8601673  60.2958903  46.3408553   9.9221673  71.1538903
  45.5458553   9.8581673  71.5048903  46.4118553  10.7691673  70.9588903
  46.2338553  10.0371673  71.1768903  49.0858553   9.1771673  62.6698903
  49.1618553   9.5181673  63.4688903  49.2548553   8.3301673  62.7908903
  49.1218553   9.1021673  62.8058903  46.6078553   8.4511673  62.2348903
  46.3098553   8.1361673  62.9918903  47.3028553   8.9241673  62.4698903
  46.6668553   8.4741673  62.3818903  46.8298553  12.5691673  70.2618903
  47.5168553  12.4551673  70.7868903  46.9638553  13.3601673  69.9178903
  46.9508553  12.6691673  70.2888903  55.0058553   5.1781673  72.0728903
  54.1508553   5.0561673  72.1988903  55.1588553   4.7831673  71.3098903
  54.9018553   5.1011673  71.9788903  49.5188553   5.8431673  70.6488903
  49.2638553   5.1241673  71.0708903  50.3398553   5.9591673  70.9188903
  49.6028553   5.7541673  70.7508903  38.9348553  15.6271673  71.9128903
  38.2808553  15.0581673  72.0108903  38.5598553  16.4001673  72.0638903
  38.7828553  15.6571673  71.9498903  47.4528553   7.0331673  73.8358903
  47.7758553   7.7191673  73.4038903  46.7488553   7.3561673  74.2378903
  47.3958553   7.1821673  73.8308903  47.2378553  10.4971673  67.6948903
  46.5438553  10.8991673  68.0378903  47.9148553  10.9301673  68.0338903
  47.2348553  10.6201673  67.7958903  52.6148553  13.0901673  74.2748903
  53.3908553  12.7001673  74.3578903  52.1458553  12.7541673  74.9298903
  52.6598553  12.9831673  74.3838903  40.3058553   4.0351673  70.0418903
  40.6808553   4.6541673  69.5548903  40.9798553   3.5611673  70.3268903
  40.4608553   4.0571673  70.0118903  38.0808553   2.4831673  69.3168903
  38.1578553   2.3141673  68.4638903  38.8268553   2.8891673  69.5138903
  38.2018553   2.5181673  69.2198903  53.6398553   5.1231673  59.7568903
  53.7428553   5.0651673  58.8928903  54.3808553   4.7911673  60.0748903
  53.7648553   5.0661673  59.6758903  47.5598553  12.0881673  60.8638903
  47.3548553  12.9211673  60.7048903  46.7848553  11.7061673  60.9858903
  47.4148553  12.1551673  60.8588903  52.7418553   5.2691673  69.1128903
  52.7398553   4.4061673  69.2368903  52.8088553   5.5931673  69.9198903
  52.7518553   5.1891673  69.2498903  37.4778553   7.7091673  69.5408903
  37.7978553   7.9281673  68.7598903  37.3778553   6.8441673  69.4858903
  37.5098553   7.6141673  69.4178903  38.9338553   3.6451673  56.1588903
  38.2618553   3.6591673  56.7148903  39.0288553   2.7971673  55.9748903
  38.8488553   3.5221673  56.2138903  42.9218553  12.3501673  57.2728903
  43.3628553  12.4301673  58.0208903  42.1168553  12.1341673  57.5308903
  42.8678553  12.3301673  57.4218903  42.2408553   7.0011673  70.9258903
  41.8448553   7.7751673  71.0008903  41.8348553   6.6281673  70.2498903
  42.1228553   7.0601673  70.8368903  51.5168553   6.0551673  65.0398903
  52.1828553   6.5961673  65.1998903  51.1718553   6.3661673  64.3008903
  51.5638553   6.1811673  64.9548903  51.8298553  14.1211673  60.8468903
  51.6558553  13.4671673  61.3968903  52.5428553  13.8501673  60.4238903
  51.9098553  13.9841673  60.8658903  40.2508553  11.4201673  57.8738903
  40.0068553  11.1131673  58.6538903  40.2178553  10.7171673  57.3578903
  40.2098553  11.2711673  57.9128903  43.0698553   9.6651673  56.6168903
  42.2518553   9.3971673  56.7568903  43.0418553  10.5171673  56.8018903
  42.9448553   9.7521673  56.6648903  49.5048553  11.5741673  68.5378903
  49.7108553  11.8751673  69.3298903  49.4438553  12.2961673  68.0528903
  49.5258553  11.7251673  68.5828903  49.0388553  15.7881673  72.7838903
  48.2858553  15.7701673  72.3428903  49.2068553  16.6401673  72.8678903
  48.9528553  15.9111673  72.7308903  44.2758553   5.0551673  71.9538903
  43.9538553   4.4791673  71.3838903  43.9168553   5.8101673  71.7078903
  44.1758553   5.0811673  71.8338903  54.3168553  10.2131673  67.9958903
  54.2848553   9.3511673  67.8608903  53.6238553  10.5151673  67.5618903
  54.2098553  10.1301673  67.9118903  42.7108553  15.4111673  72.2018903
  42.7518553  15.5371673  73.0648903  43.3618553  14.8511673  72.0458903
  42.8128553  15.3471673  72.3068903  52.4218553  13.4731673  66.7928903
  52.9488553  13.3901673  66.1018903  52.0308553  12.6951673  66.8468903
  52.4418553  13.3461673  66.6988903  40.3038553  13.7941673  73.5618903
  40.8988553  14.2251673  74.0338903  39.9398553  14.4181673  73.0728903
  40.3378553  13.9501673  73.5588903  48.2948553   4.7251673  63.4938903
  48.8458553   4.1181673  63.7938903  47.8698553   4.9881673  64.2088903
  48.3138553   4.6741673  63.6428903  38.5428553   3.3751673  62.9798903
  38.1748553   3.6771673  63.7108903  39.0768553   2.7461673  63.2638903
  38.5668553   3.3271673  63.1298903  38.2308553  11.7831673  70.4908903
  37.6568553  12.1991673  70.9998903  38.9638553  12.2481673  70.5858903
  38.2548553  11.9131673  70.5798903  50.2648553   6.5561673  60.0558903
  50.3328553   5.7061673  60.2368903  49.4418553   6.6421673  59.7778903
  50.1528553   6.4431673  60.0418903  40.0168553  15.0501673  59.2658903
  39.8718553  15.2061673  58.4198903  40.8828553  15.1291673  59.3438903
  40.1238553  15.0851673  59.1528903  44.1838553   7.4471673  58.9938903
  44.2838553   7.5861673  58.1388903  45.0018553   7.3871673  59.2898903
  44.3188553   7.4581673  58.9108903  53.3438553  15.5111673  56.4738903
  53.9808553  15.3771673  57.0548903  53.0028553  14.7171673  56.3568903
  53.3878553  15.3741673  56.5418903  53.5388553   7.9291673  73.2068903
  54.1728553   7.7591673  73.7808903  53.9558553   8.3321673  72.5548903
  53.6938553   7.9641673  73.1958903  49.4188553  11.7761673  58.7958903
  49.1678553  11.6481673  59.6218903  49.1018553  11.0811673  58.3748903
  49.3348553  11.6551673  58.8558903  54.1638553   2.4931673  73.9448903
  53.9678553   3.1371673  74.4998903  53.4418553   2.0031673  73.9368903
  54.0288553   2.5161673  74.0258903  54.0628553   3.4341673  66.9158903
  53.2298553   3.6841673  66.8438903  54.0068553   2.5941673  67.1448903
  53.9318553   3.3471673  66.9388903  50.9498553   8.0401673  74.5618903
  51.8208553   8.0041673  74.5258903  50.7308553   8.4601673  73.8298903
  51.0468553   8.0961673  74.4488903  40.7038553  13.8651673  65.7428903
  40.6248553  13.0551673  65.4268903  40.2598553  14.3521673  65.1708903
  40.6268553  13.8171673  65.6118903  46.3048553   9.9841673  58.2258903
  47.0218553   9.6371673  57.8698903  46.2708553  10.7841673  57.8778903
  46.4058553  10.0511673  58.1218903  38.2758553  16.1091673  69.3238903
  38.7688553  16.0531673  70.0418903  38.4638553  15.3761673  68.8888903
  38.3768553  15.9921673  69.3658903  47.5228553   5.5411673  47.1356493
  46.9988553   6.1371673  47.4986493  47.9198553   5.1731673  47.8196493
  47.5038553   5.5751673  47.2906493  37.3918553   9.6811673  42.5916493
  36.9508553   9.7991673  43.3346493  37.1088553   8.9061673  42.3066493
  37.2848553   9.5841673  42.6596493  53.6668553  12.9821673  40.1066493
  54.3678553  12.4631673  40.1026493  53.0798553  12.5371673  39.6376493
  53.6838553  12.8391673  40.0366493  37.1348553   3.4731673  39.0986493
  36.3568553   3.6351673  38.7386493  37.1738553   2.6021673  39.1206493
  37.0258553   3.3681673  39.0486493  40.2738553   8.7361673  37.7706493
  39.8818553   8.3651673  37.0846493  40.1938553   8.1381673  38.3996493
  40.2038553   8.5931673  37.7616493  50.1938553   6.6081673  43.8116493
  50.2738553   6.6121673  42.9426493  49.6098553   5.9761673  43.9606493
  50.1188553   6.5151673  43.7056493  39.9008553  10.3771673  41.6706493
  40.5088553  10.2071673  42.2736493  39.1498553  10.2371673  42.0916493
  39.8798553  10.3311673  41.8216493  38.7918553  13.4681673  37.7476493
  39.2588553  13.5521673  37.0156493  39.2468553  12.8901673  38.2166493
  38.9278553  13.3951673  37.7086493  37.3318553  12.4161673  48.8466493
  37.4608553  12.1361673  49.6626493  36.7218553  11.8751673  48.5376493
  37.2608553  12.2951673  48.9216493  43.9058553   9.9411673  53.9136493
  43.6698553   9.9381673  54.7536493  43.1578553   9.7931673  53.4896493
  43.7598553   9.9181673  53.9746493  38.7778553   6.9371673  43.0486493
  38.3158553   6.5451673  42.4216493  39.4778553   6.4241673  43.1406493
  38.8128553   6.8041673  42.9696493  43.8878553  13.1331673  51.1766493
  44.0258553  13.8931673  50.7696493  44.6788553  12.7681673  51.2036493
  44.0248553  13.1921673  51.1206493  40.7788553   5.0371673  43.0716493
  41.5958553   4.8501673  43.3146493  40.3018553   4.4231673  43.4676493
  40.8288553   4.9191673  43.1666493  44.9828553  11.0181673  45.6816493
  45.3308553  10.2191673  45.7116493  45.6478553  11.5221673  45.4266493
  45.1328553  10.9741673  45.6486493  45.0398553  10.4671673  41.8926493
  45.3708553   9.8231673  42.3786493  45.2798553  10.2561673  41.0816493
  45.1238553  10.3411673  41.8446493  47.0078553   4.5981673  53.2316493
  46.1598553   4.4991673  53.0536493  47.0368553   5.3431673  53.6856493
  46.8868553   4.6941673  53.2726493  37.2338553   4.6981673  46.0616493
  36.9778553   5.5291673  45.9866493  36.5698553   4.3151673  46.4786493
  37.0978553   4.7641673  46.1126493  37.1438553  14.4081673  43.9616493
  36.5518553  14.9661673  43.6486493  37.5698553  14.1391673  43.2496493
  37.1198553  14.4501673  43.8106493  42.9838553  12.2521673  41.4416493
  42.4048553  11.9771673  42.0336493  43.6078553  11.6431673  41.4666493
  42.9908553  12.1221673  41.5326493  49.1268553  14.5401673  38.9636493
  49.8538553  15.0121673  39.0656493  49.3558553  13.7461673  39.2436493
  49.2688553  14.4931673  39.0206493  47.2948553  14.9321673  40.9536493
  47.5088553  15.4591673  41.6156493  48.0618553  14.7581673  40.5746493
  47.4398553  14.9841673  40.9956493  38.6888553  13.0781673  41.8926493
  39.3448553  12.5031673  41.9076493  39.0778553  13.8271673  41.6716493
  38.8438553  13.1031673  41.8626493  49.7338553  14.9421673  49.2586493
  50.4778553  15.3981673  49.2486493  49.6128553  14.7281673  48.4216493
  49.8258553  14.9781673  49.1336493  39.5068553  11.5651673  45.3926493
  39.9298553  11.2091673  44.7186493  39.8308553  11.1431673  46.0846493
  39.6168553  11.4501673  45.3956493  42.7378553  14.4171673  44.6886493
  43.5818553  14.5211673  44.4936493  42.4408553  15.2351673  44.7566493
  42.8188553  14.5531673  44.6696493  46.5448553   3.8141673  42.7756493
  46.8318553   3.5821673  41.9856493  47.2768553   3.8931673  43.2446493
  46.6948553   3.7911673  42.7286493  47.2668553   4.1531673  37.8966493
  47.5478553   4.9411673  38.1456493  46.4908553   4.3181673  37.5336493
  47.1938553   4.2941673  37.8796493  51.3078553  16.1271673  39.3636493
  51.9728553  15.9791673  38.8186493  51.6678553  16.0441673  40.1536493
  51.4598553  16.0931673  39.3996493  41.7358553  15.6361673  50.4286493
  42.0278553  15.5691673  51.2486493  41.1098553  15.0311673  50.3836493
  41.6868553  15.5371673  50.5436493  36.6498553   1.7931673  52.4206493
  36.6458553   2.3801673  53.0666493  37.2438553   2.1051673  51.8636493
  36.7368553   1.9261673  52.4336493  48.9878553  12.1271673  52.9626493
  48.9538553  12.5091673  53.7466493  49.8418553  12.0851673  52.7916493
  49.1088553  12.1771673  53.0536493  46.1258553  12.3241673  37.7126493
  45.9448553  12.8691673  38.3696493  46.8918553  12.6141673  37.4116493
  46.2118553  12.4481673  37.7656493  39.7288553  13.7981673  49.5506493
  39.0308553  13.2901673  49.6766493  39.9888553  13.5931673  48.7426493
  39.6638553  13.6931673  49.4496493  46.8908553   2.5961673  40.0806493
  46.3828553   1.9341673  39.8266493  46.9428553   3.1001673  39.3706493
  46.8238553   2.5731673  39.9386493  47.4398553  15.2911673  50.4606493
  48.2078553  15.2111673  50.0546493  46.8568553  15.1701673  49.8226493
  47.4668553  15.2611673  50.3066493  53.7168553  15.8941673  43.3616493
  53.2618553  16.6111673  43.5626493  53.1028553  15.3231673  43.1196493
  53.5588553  15.9161673  43.3556493  45.4888553   1.9041673  44.4936493
  45.5628553   2.4721673  43.8356493  45.6098553   2.3961673  45.2036493
  45.5168553   2.0611673  44.5016493  50.7138553  11.7391673  42.9056493
  51.4148553  11.2571673  43.0946493  50.0538553  11.1701673  42.9506493
  50.7198553  11.5841673  42.9396493  41.0898553  12.6491673  52.1176493
  41.9308553  12.7121673  51.8956493  41.0528553  13.0461673  52.8936493
  41.2088553  12.7171673  52.1996493  43.0528553   8.1601673  46.8666493
  43.2248553   7.9501673  47.6956493  42.3978553   7.6261673  46.6506493
  42.9818553   8.0501673  46.9576493  43.8028553   8.0981673  49.4566493
  43.8558553   8.9451673  49.6586493  43.5178553   7.7281673  50.1936493
  43.7688553   8.1681673  49.5946493  49.9798553   8.7931673  48.5866493
  49.4658553   8.3811673  49.1576493  49.8538553   9.6371673  48.7676493
  49.8858553   8.8571673  48.6976493  36.6238553  12.4691673  55.6676493
  37.3798553  12.8181673  55.9256493  36.8008553  11.6161673  55.6106493
  36.7618553  12.3941673  55.6976493  53.0008553   2.2541673  51.5256493
  53.7728553   2.0291673  51.8626493  52.5258553   2.4711673  52.2256493
  53.0448553   2.2531673  51.6786493  53.2328553   9.2321673  38.7136493
  53.3518553   8.9451673  39.5286493  54.0398553   9.2531673  38.3836493
  53.3688553   9.1931673  38.7856493  40.3688553   8.9641673  44.0446493
  41.2198553   8.8841673  43.8716493  40.0118553   8.2821673  43.6326493
  40.4418553   8.8511673  43.9576493  39.1358553  15.6891673  45.2816493
  38.4628553  15.1911673  45.0366493  39.5388553  15.8741673  44.5306493
  39.0958553  15.6431673  45.1346493  38.6858553   2.6391673  47.5776493
  39.5288553   2.8591673  47.5346493  38.2968553   3.2121673  47.0466493
  38.7528553   2.7561673  47.4926493  55.4668553  13.7411673  52.9676493
  54.7848553  14.0511673  52.5206493  55.0978553  13.2831673  53.6126493
  55.3108553  13.7191673  52.9966493  51.1278553   5.7691673  38.2986493
  50.9078553   6.5001673  37.8766493  50.6798553   5.8201673  39.0456493
  51.0288553   5.8841673  38.3466493  42.7368553   8.9711673  42.2796493
  43.4498553   9.4661673  42.3696493  42.9588553   8.4041673  41.6536493
  42.8748553   8.9601673  42.2006493  36.8928553  10.6141673  45.5996493
  36.2258553  11.1021673  45.8756493  37.5728553  11.1591673  45.6286493
  36.8948553  10.7661673  45.6446493  44.5398553   4.3241673  55.6956493
  44.0558553   4.9011673  56.1376493  44.5118553   4.6191673  54.8746493
  44.4638553   4.4531673  55.6396493  55.6378553   5.0081673  50.3076493
  55.8528553   4.2081673  50.0316493  54.7878553   5.0681673  50.1186493
  55.5438553   4.8991673  50.2386493  36.9588553   7.2981673  40.7026493
  36.7738553   6.4591673  40.8546493  37.6178553   7.2621673  40.1326493
  37.0288553   7.1691673  40.6406493  47.2598553  12.6741673  44.6066493
  46.7368553  13.3081673  44.3136493  47.5698553  12.3101673  43.8776493
  47.2278553  12.7141673  44.4556493  37.1308553  11.4621673  40.2776493
  37.6828553  12.0311673  40.6416493  36.8988553  10.9471673  40.9426493
  37.1778553  11.4701673  40.4296493  41.3348553  10.4621673  47.3666493
  41.8018553  10.7511673  48.0446493  41.9068553   9.9841673  46.9126493
  41.4888553  10.4341673  47.3996493  36.9608553   9.9111673  37.9056493
  37.7168553   9.4791673  37.9636493  36.9758553  10.4431673  38.5966493
  37.0748553   9.9261673  38.0166493  37.9008553   8.1321673  45.9106493
  38.3318553   8.0031673  45.1636493  37.6958553   8.9801673  45.8846493
  37.9338553   8.2381673  45.7966493  53.3008553  14.1231673  51.0576493
  52.6298553  14.6371673  51.2756493  53.3638553  14.2231673  50.1936493
  53.2108553  14.2141673  50.9626493  41.9848553  11.6481673  44.1926493
  42.1108553  12.4911673  44.3796493  42.6528553  11.2491673  44.5886493
  42.1028553  11.7141673  44.2786493  40.1148553   5.1311673  54.0546493
  39.5788553   4.6251673  54.5226493  40.1348553   4.7411673  53.2746493
  40.0378553   4.9981673  54.0086493  40.5998553   4.5281673  39.1946493
  40.4718553   4.0801673  39.9326493  40.0178553   4.1861673  38.6426493
  40.4948553   4.4111673  39.2226493  40.7668553   6.3581673  45.7936493
  39.9858553   6.2991673  45.4106493  40.8388553   5.6061673  46.2306493
  40.6618553   6.2391673  45.8016493  41.1968553   6.0951673  49.2616493
  41.2218553   5.4201673  48.7106493  40.5508553   6.5911673  48.9496493
  41.1058553   6.0681673  49.1346493  51.0918553   3.8081673  47.6576493
  50.4298553   4.1361673  48.1206493  51.2788553   4.4421673  47.0886493
  51.0218553   3.9501673  47.6416493  45.2968553  14.8721673  48.6536493
  45.0198553  14.2311673  48.1306493  45.0888553  15.5981673  48.2156493
  45.2258553  14.8851673  48.5116493  49.2848553   1.7771673  41.1686493
  49.7748553   2.4941673  41.0916493  48.4948553   2.0381673  40.9056493
  49.2408553   1.9211673  41.1186493  38.9958553   7.4501673  54.8206493
  38.9588553   7.9511673  54.1066493  39.3268553   6.6981673  54.5256493
  39.0388553   7.4121673  54.6716493  50.5988553   9.6551673  53.0786493
  51.0828553  10.3731673  53.1766493  50.9928553   9.2281673  52.4276493
  50.7288553   9.6981673  52.9966493  44.8948553  12.5001673  54.2556493
  45.2488553  12.3221673  55.0326493  44.4588553  11.7711673  54.0566493
  44.8828553  12.3661673  54.3416493  45.8668553   3.2471673  46.8936493
  46.3468553   3.9461673  47.1016493  46.2398553   2.6001673  47.3446493
  45.9928553   3.2551673  46.9906493  48.0558553   6.4161673  39.1676493
  48.0478553   7.1381673  38.6776493  47.4168553   6.5511673  39.7446493
  47.9608553   6.5431673  39.1806493  53.0278553  10.2861673  43.1486493
  53.3838553   9.9361673  43.8636493  53.0198553   9.6251673  42.5786493
  53.0798553  10.1361673  43.1696493  49.0728553  13.3521673  46.9926493
  48.4698553  13.0561673  46.4356493  49.6178553  13.8041673  46.4836493
  49.0638553  13.3751673  46.8346493  49.0858553  10.2031673  46.3926493
  48.2888553  10.4271673  46.6666493  49.3438553   9.6091673  46.9776493
  49.0058553  10.1481673  46.5196493  42.9778553  15.0151673  40.8406493
  42.8308553  14.2391673  41.2116493  43.6668553  14.8681673  40.3256493
  43.0578553  14.8781673  40.8196493  45.2698553  14.5311673  39.2426493
  45.8918553  14.6941673  39.8326493  45.3058553  15.2221673  38.7106493
  45.3668553  14.6571673  39.2516493  52.3458553   8.2011673  51.2386493
  52.4008553   8.3261673  50.3766493  53.0988553   8.5211673  51.5406493
  52.4648553   8.2661673  51.1556493  48.5368553  13.5501673  55.5156493
  48.7008553  13.8331673  56.3246493  48.7998553  14.2111673  55.0106493
  48.5998553  13.6901673  55.5606493  39.7708553   7.0651673  40.0716493
  40.0948553   6.2861673  39.8496493  40.4168553   7.4331673  40.5266493
  39.9138553   7.0041673  40.1056493  48.0768553   8.0071673  50.8386493
  47.9218553   8.6171673  51.4426493  48.6108553   7.4491673  51.2446493
  48.1328553   8.0151673  50.9876493  46.4608553   6.4071673  41.4966493
  46.5198553   7.0571673  42.0756493  46.2718553   5.7111673  41.9876493
  46.4418553   6.4001673  41.6546493  51.6868553  10.7361673  47.3656493
  51.2078553  11.0341673  46.6996493  51.3308553   9.9601673  47.5436493
  51.5638553  10.6651673  47.2936493  45.6838553   8.4541673  45.9276493
  44.8368553   8.2601673  46.0086493  46.0078553   8.2891673  46.7206493
  45.6058553   8.4011673  46.0566493  42.4358553  15.1841673  36.8136493
  42.8748553  14.4871673  37.1016493  42.6428553  15.8081673  37.3866493
  42.5318553  15.1731673  36.9406493  39.5318553   8.1471673  48.2436493
  40.2538553   8.6351673  48.2066493  39.2618553   8.1171673  47.4146493
  39.5988553   8.2151673  48.1156493  42.7618553   3.3181673  44.9786493
  43.6078553   3.1281673  45.0766493  42.3918553   2.5411673  44.8406493
  42.8318553   3.1751673  44.9726493  55.3788553  14.9021673  39.3056493
  56.0728553  14.4351673  39.0576493  54.8398553  14.3041673  39.6426493
  55.4018553  14.7441673  39.3186493  37.5828553   4.6561673  41.6336493
  38.0718553   4.3641673  42.2946493  37.7118553   4.0631673  41.0066493
  37.6738553   4.5251673  41.6386493  52.6178553   7.6781673  48.4846493
  52.6108553   6.9021673  48.8826493  51.7768553   7.9121673  48.4776493
  52.4928553   7.5981673  48.5426493  42.1078553   6.0901673  37.1196493
  41.4978553   5.6851673  37.5936493  41.7218553   6.2081673  36.3466493
  41.9608553   6.0471673  37.0756493  38.9268553   9.1991673  52.5216493
  38.5058553   8.6811673  51.9606493  38.5748553   9.9851673  52.3786493
  38.8128553   9.2391673  52.4176493  53.8738553   7.7491673  45.9216493
  53.5878553   8.1501673  46.6416493  54.7338553   7.6871673  46.0486493
  53.9588553   7.7991673  46.0466493  43.5628553   4.5511673  39.8296493
  43.8348553   5.3771673  39.8966493  42.6998553   4.6261673  39.7336493
  43.4758553   4.6841673  39.8246493  55.0048553  13.3821673  46.4506493
  55.2948553  13.6391673  45.6696493  55.6998553  13.4781673  46.9696493
  55.1508553  13.4341673  46.4116493  50.0278553   5.2421673  54.5376493
  50.1008553   5.3461673  55.4006493  49.3938553   5.8001673  54.3166493
  49.9448553   5.3401673  54.6326493  52.2958553   5.5611673  52.9026493
  52.6148553   6.3471673  53.1056493  51.9258553   5.2911673  53.6456493
  52.2888553   5.6371673  53.0426493  51.6098553  11.9851673  38.4326493
  51.9438553  11.1791673  38.4676493  50.8548553  11.9131673  38.8626493
  51.5478553  11.8551673  38.5016493  52.0918553   3.8191673  44.0916493
  51.3468553   3.4961673  44.4096493  52.0938553   4.6451673  44.3716493
  51.9818553   3.8931673  44.1796493  54.9938553   6.1031673  55.6376493
  54.9418553   5.7621673  54.8366493  55.7308553   6.5701673  55.6156493
  55.0948553   6.1221673  55.5156493  54.5318553   9.7791673  51.8436493
  55.1598553   9.2301673  51.5876493  54.4708553  10.3441673  51.1816493
  54.6158553   9.7821673  51.7076493  48.9838553   9.8601673  37.8356493
  49.6678553   9.3461673  37.6666493  48.5668553   9.9061673  37.0706493
  49.0228553   9.7911673  37.6976493  43.6658553  11.0101673  49.1396493
  43.3678553  11.6021673  49.7066493  43.7208553  11.4521673  48.3906493
  43.6298553  11.1631673  49.1126493  41.6448553   9.9601673  52.5376493
  40.8388553   9.6701673  52.7046493  41.5558553  10.8281673  52.5436493
  41.5128553  10.0451673  52.5626493  46.1818553   7.4331673  48.6306493
  46.6578553   7.8071673  49.2586493  45.3588553   7.5671673  48.8896493
  46.1308553   7.5081673  48.7616493  42.8918553   3.0361673  51.3716493
  43.0528553   2.2921673  51.7986493  42.8468553   2.7871673  50.5366493
  42.9088553   2.8891673  51.3116493  45.4458553  14.8261673  43.8586493
  45.9918553  15.5051673  43.9126493  45.0958553  14.9081673  43.0636493
  45.4748553  14.9391673  43.7486493  43.6288553  13.0541673  47.2476493
  43.0048553  13.6361673  47.0656493  43.8768553  12.7681673  46.4616493
  43.5728553  13.0981673  47.1046493  47.9378553   9.6881673  54.2366493
  48.6948553   9.9741673  53.9106493  47.3908553   9.7401673  53.5586493
  47.9688553   9.7381673  54.0876493  51.8468553  12.2381673  52.7406493
  52.1928553  12.5081673  53.4946493  52.1408553  12.8201673  52.1606493
  51.9418553  12.3641673  52.7666493  53.7098553   4.3841673  38.0796493
  54.0878553   5.0611673  37.6796493  52.8678553   4.6081673  38.1106493
  53.6408553   4.5171673  38.0246493  45.2228553   7.8301673  37.1626493
  44.4178553   7.6531673  36.8776493  45.1898553   8.6811673  37.3546493
  45.0988553   7.9291673  37.1496493  41.1528553   3.8971673  47.3126493
  41.5928553   3.7941673  46.5666493  41.6978553   3.5841673  47.9176493
  41.2978553   3.8361673  47.2916493  49.1688553   2.9991673  52.9046493
  48.5208553   3.4691673  53.2526493  49.7338553   2.9101673  53.5636493
  49.1568553   3.0551673  53.0536493  48.8568553   4.5361673  49.2026493
  49.1588553   4.9561673  49.9056493  48.8928553   3.6961673  49.4346493
  48.9068553   4.4741673  49.3406493  46.2818553  14.7031673  53.1276493
  46.7598553  14.1031673  52.7116493  45.9308553  14.2601673  53.7926493
  46.3008553  14.5491673  53.1646493  51.4048553   3.9831673  41.4546493
  51.6118553   3.7821673  42.2786493  52.1608553   4.2511673  41.1126493
  51.5468553   3.9931673  41.5256493  52.8698553   8.0101673  41.3086493
  53.3458553   7.2811673  41.2606493  52.0488553   7.7241673  41.2326493
  52.8188553   7.8601673  41.2896493  46.3408553   9.9221673  52.1476493
  45.5458553   9.8581673  52.4986493  46.4118553  10.7691673  51.9526493
  46.2338553  10.0371673  52.1706493  42.1708553  16.1291673  47.4646493
  42.1818553  16.1881673  48.3346493  41.7458553  15.3821673  47.3146493
  42.1098553  16.0271673  47.5706493  49.0858553   9.1771673  43.6636493
  49.1618553   9.5181673  44.4626493  49.2548553   8.3301673  43.7846493
  49.1218553   9.1021673  43.7996493  46.6078553   8.4511673  43.2286493
  46.3098553   8.1361673  43.9856493  47.3028553   8.9241673  43.4636493
  46.6668553   8.4741673  43.3756493  46.8298553  12.5691673  51.2556493
  47.5168553  12.4551673  51.7806493  46.9638553  13.3601673  50.9116493
  46.9508553  12.6691673  51.2826493  55.0058553   5.1781673  53.0666493
  54.1508553   5.0561673  53.1926493  55.1588553   4.7831673  52.3036493
  54.9018553   5.1011673  52.9726493  49.5188553   5.8431673  51.6426493
  49.2638553   5.1241673  52.0646493  50.3398553   5.9591673  51.9126493
  49.6028553   5.7541673  51.7446493  38.9348553  15.6271673  52.9066493
  38.2808553  15.0581673  53.0046493  38.5598553  16.4001673  53.0576493
  38.7828553  15.6571673  52.9436493  47.4528553   7.0331673  54.8296493
  47.7758553   7.7191673  54.3976493  46.7488553   7.3561673  55.2316493
  47.3958553   7.1821673  54.8246493  50.5368553  15.4071673  45.7586493
  50.0858553  16.0501673  46.1376493  51.2448553  15.3281673  46.2636493
  50.5748553  15.4901673  45.8896493  47.2378553  10.4971673  48.6886493
  46.5438553  10.8991673  49.0316493  47.9148553  10.9301673  49.0276493
  47.2348553  10.6201673  48.7896493  52.6148553  13.0901673  55.2686493
  53.3908553  12.7001673  55.3516493  52.1458553  12.7541673  55.9236493
  52.6598553  12.9831673  55.3776493  40.3058553   4.0351673  51.0356493
  40.6808553   4.6541673  50.5486493  40.9798553   3.5611673  51.3206493
  40.4608553   4.0571673  51.0056493  38.0808553   2.4831673  50.3106493
  38.1578553   2.3141673  49.4576493  38.8268553   2.8891673  50.5076493
  38.2018553   2.5181673  50.2136493  53.6398553   5.1231673  40.7506493
  53.7428553   5.0651673  39.8866493  54.3808553   4.7911673  41.0686493
  53.7648553   5.0661673  40.6696493  47.5598553  12.0881673  41.8576493
  47.3548553  12.9211673  41.6986493  46.7848553  11.7061673  41.9796493
  47.4148553  12.1551673  41.8526493  52.7418553   5.2691673  50.1066493
  52.7398553   4.4061673  50.2306493  52.8088553   5.5931673  50.9136493
  52.7518553   5.1891673  50.2436493  37.4778553   7.7091673  50.5346493
  37.7978553   7.9281673  49.7536493  37.3778553   6.8441673  50.4796493
  37.5098553   7.6141673  50.4116493  38.9338553   3.6451673  37.1526493
  38.2618553   3.6591673  37.7086493  39.0288553   2.7971673  36.9686493
  38.8488553   3.5221673  37.2076493  42.9218553  12.3501673  38.2666493
  43.3628553  12.4301673  39.0146493  42.1168553  12.1341673  38.5246493
  42.8678553  12.3301673  38.4156493  42.2408553   7.0011673  51.9196493
  41.8448553   7.7751673  51.9946493  41.8348553   6.6281673  51.2436493
  42.1228553   7.0601673  51.8306493  51.5168553   6.0551673  46.0336493
  52.1828553   6.5961673  46.1936493  51.1718553   6.3661673  45.2946493
  51.5638553   6.1811673  45.9486493  51.8298553  14.1211673  41.8406493
  51.6558553  13.4671673  42.3906493  52.5428553  13.8501673  41.4176493
  51.9098553  13.9841673  41.8596493  40.2508553  11.4201673  38.8676493
  40.0068553  11.1131673  39.6476493  40.2178553  10.7171673  38.3516493
  40.2098553  11.2711673  38.9066493  43.0698553   9.6651673  37.6106493
  42.2518553   9.3971673  37.7506493  43.0418553  10.5171673  37.7956493
  42.9448553   9.7521673  37.6586493  49.5048553  11.5741673  49.5316493
  49.7108553  11.8751673  50.3236493  49.4438553  12.2961673  49.0466493
  49.5258553  11.7251673  49.5766493  49.0388553  15.7881673  53.7776493
  48.2858553  15.7701673  53.3366493  49.2068553  16.6401673  53.8616493
  48.9528553  15.9111673  53.7246493  44.2758553   5.0551673  52.9476493
  43.9538553   4.4791673  52.3776493  43.9168553   5.8101673  52.7016493
  44.1758553   5.0811673  52.8276493  54.3168553  10.2131673  48.9896493
  54.2848553   9.3511673  48.8546493  53.6238553  10.5151673  48.5556493
  54.2098553  10.1301673  48.9056493  42.7108553  15.4111673  53.1956493
  42.7518553  15.5371673  54.0586493  43.3618553  14.8511673  53.0396493
  42.8128553  15.3471673  53.3006493  52.4218553  13.4731673  47.7866493
  52.9488553  13.3901673  47.0956493  52.0308553  12.6951673  47.8406493
  52.4418553  13.3461673  47.6926493  40.3038553  13.7941673  54.5556493
  40.8988553  14.2251673  55.0276493  39.9398553  14.4181673  54.0666493
  40.3378553  13.9501673  54.5526493  48.2948553   4.7251673  44.4876493
  48.8458553   4.1181673  44.7876493  47.8698553   4.9881673  45.2026493
  48.3138553   4.6741673  44.6366493  38.5428553   3.3751673  43.9736493
  38.1748553   3.6771673  44.7046493  39.0768553   2.7461673  44.2576493
  38.5668553   3.3271673  44.1236493  38.2308553  11.7831673  51.4846493
  37.6568553  12.1991673  51.9936493  38.9638553  12.2481673  51.5796493
  38.2548553  11.9131673  51.5736493  50.2648553   6.5561673  41.0496493
  50.3328553   5.7061673  41.2306493  49.4418553   6.6421673  40.7716493
  50.1528553   6.4431673  41.0356493  40.0168553  15.0501673  40.2596493
  39.8718553  15.2061673  39.4136493  40.8828553  15.1291673  40.3376493
  40.1238553  15.0851673  40.1466493  44.1838553   7.4471673  39.9876493
  44.2838553   7.5861673  39.1326493  45.0018553   7.3871673  40.2836493
  44.3188553   7.4581673  39.9046493  53.3438553  15.5111673  37.4676493
  53.9808553  15.3771673  38.0486493  53.0028553  14.7171673  37.3506493
  53.3878553  15.3741673  37.5356493  53.5388553   7.9291673  54.2006493
  54.1728553   7.7591673  54.7746493  53.9558553   8.3321673  53.5486493
  53.6938553   7.9641673  54.1896493  49.4188553  11.7761673  39.7896493
  49.1678553  11.6481673  40.6156493  49.1018553  11.0811673  39.3686493
  49.3348553  11.6551673  39.8496493  54.1638553   2.4931673  54.9386493
  53.9678553   3.1371673  55.4936493  53.4418553   2.0031673  54.9306493
  54.0288553   2.5161673  55.0196493  54.0628553   3.4341673  47.9096493
  53.2298553   3.6841673  47.8376493  54.0068553   2.5941673  48.1386493
  53.9318553   3.3471673  47.9326493  50.9498553   8.0401673  55.5556493
  51.8208553   8.0041673  55.5196493  50.7308553   8.4601673  54.8236493
  51.0468553   8.0961673  55.4426493  40.7038553  13.8651673  46.7366493
  40.6248553  13.0551673  46.4206493  40.2598553  14.3521673  46.1646493
  40.6268553  13.8171673  46.6056493  46.3048553   9.9841673  39.2196493
  47.0218553   9.6371673  38.8636493  46.2708553  10.7841673  38.8716493
  46.4058553  10.0511673  39.1156493  38.2758553  16.1091673  50.3176493
  38.7688553  16.0531673  51.0356493  38.4638553  15.3761673  49.8826493
  38.3768553  15.9921673  50.3596493  47.5228553   5.5411673  28.1294083
  46.9988553   6.1371673  28.4924083  47.9198553   5.1731673  28.8134083
  47.5038553   5.5751673  28.2844083  37.3918553   9.6811673  23.5854083
  36.9508553   9.7991673  24.3284083  37.1088553   8.9061673  23.3004083
  37.2848553   9.5841673  23.6534083  53.6668553  12.9821673  21.1004083
  54.3678553  12.4631673  21.0964083  53.0798553  12.5371673  20.6314083
  53.6838553  12.8391673  21.0304083  37.1348553   3.4731673  20.0924083
  36.3568553   3.6351673  19.7324083  37.1738553   2.6021673  20.1144083
  37.0258553   3.3681673  20.0424083  40.2738553   8.7361673  18.7644083
  39.8818553   8.3651673  18.0784083  40.1938553   8.1381673  19.3934083
  40.2038553   8.5931673  18.7554083  50.1938553   6.6081673  24.8054083
  50.2738553   6.6121673  23.9364083  49.6098553   5.9761673  24.9544083
  50.1188553   6.5151673  24.6994083  39.9008553  10.3771673  22.6644083
  40.5088553  10.2071673  23.2674083  39.1498553  10.2371673  23.0854083
  39.8798553  10.3311673  22.8154083  38.7918553  13.4681673  18.7414083
  39.2588553  13.5521673  18.0094083  39.2468553  12.8901673  19.2104083
  38.9278553  13.3951673  18.7024083  37.3318553  12.4161673  29.8404083
  37.4608553  12.1361673  30.6564083  36.7218553  11.8751673  29.5314083
  37.2608553  12.2951673  29.9154083  43.9058553   9.9411673  34.9074083
  43.6698553   9.9381673  35.7474083  43.1578553   9.7931673  34.4834083
  43.7598553   9.9181673  34.9684083  38.7778553   6.9371673  24.0424083
  38.3158553   6.5451673  23.4154083  39.4778553   6.4241673  24.1344083
  38.8128553   6.8041673  23.9634083  43.8878553  13.1331673  32.1704083
  44.0258553  13.8931673  31.7634083  44.6788553  12.7681673  32.1974083
  44.0248553  13.1921673  32.1144083  40.7788553   5.0371673  24.0654083
  41.5958553   4.8501673  24.3084083  40.3018553   4.4231673  24.4614083
  40.8288553   4.9191673  24.1604083  44.9828553  11.0181673  26.6754083
  45.3308553  10.2191673  26.7054083  45.6478553  11.5221673  26.4204083
  45.1328553  10.9741673  26.6424083  45.0398553  10.4671673  22.8864083
  45.3708553   9.8231673  23.3724083  45.2798553  10.2561673  22.0754083
  45.1238553  10.3411673  22.8384083  47.0078553   4.5981673  34.2254083
  46.1598553   4.4991673  34.0474083  47.0368553   5.3431673  34.6794083
  46.8868553   4.6941673  34.2664083  37.2338553   4.6981673  27.0554083
  36.9778553   5.5291673  26.9804083  36.5698553   4.3151673  27.4724083
  37.0978553   4.7641673  27.1064083  37.1438553  14.4081673  24.9554083
  36.5518553  14.9661673  24.6424083  37.5698553  14.1391673  24.2434083
  37.1198553  14.4501673  24.8044083  42.9838553  12.2521673  22.4354083
  42.4048553  11.9771673  23.0274083  43.6078553  11.6431673  22.4604083
  42.9908553  12.1221673  22.5264083  49.1268553  14.5401673  19.9574083
  49.8538553  15.0121673  20.0594083  49.3558553  13.7461673  20.2374083
  49.2688553  14.4931673  20.0144083  47.2948553  14.9321673  21.9474083
  47.5088553  15.4591673  22.6094083  48.0618553  14.7581673  21.5684083
  47.4398553  14.9841673  21.9894083  38.6888553  13.0781673  22.8864083
  39.3448553  12.5031673  22.9014083  39.0778553  13.8271673  22.6654083
  38.8438553  13.1031673  22.8564083  49.7338553  14.9421673  30.2524083
  50.4778553  15.3981673  30.2424083  49.6128553  14.7281673  29.4154083
  49.8258553  14.9781673  30.1274083  39.5068553  11.5651673  26.3864083
  39.9298553  11.2091673  25.7124083  39.8308553  11.1431673  27.0784083
  39.6168553  11.4501673  26.3894083  42.7378553  14.4171673  25.6824083
  43.5818553  14.5211673  25.4874083  42.4408553  15.2351673  25.7504083
  42.8188553  14.5531673  25.6634083  46.5448553   3.8141673  23.7694083
  46.8318553   3.5821673  22.9794083  47.2768553   3.8931673  24.2384083
  46.6948553   3.7911673  23.7224083  47.2668553   4.1531673  18.8904083
  47.5478553   4.9411673  19.1394083  46.4908553   4.3181673  18.5274083
  47.1938553   4.2941673  18.8734083  51.3078553  16.1271673  20.3574083
  51.9728553  15.9791673  19.8124083  51.6678553  16.0441673  21.1474083
  51.4598553  16.0931673  20.3934083  41.7358553  15.6361673  31.4224083
  42.0278553  15.5691673  32.2424083  41.1098553  15.0311673  31.3774083
  41.6868553  15.5371673  31.5374083  36.6498553   1.7931673  33.4144083
  36.6458553   2.3801673  34.0604083  37.2438553   2.1051673  32.8574083
  36.7368553   1.9261673  33.4274083  48.9878553  12.1271673  33.9564083
  48.9538553  12.5091673  34.7404083  49.8418553  12.0851673  33.7854083
  49.1088553  12.1771673  34.0474083  46.1258553  12.3241673  18.7064083
  45.9448553  12.8691673  19.3634083  46.8918553  12.6141673  18.4054083
  46.2118553  12.4481673  18.7594083  39.7288553  13.7981673  30.5444083
  39.0308553  13.2901673  30.6704083  39.9888553  13.5931673  29.7364083
  39.6638553  13.6931673  30.4434083  46.8908553   2.5961673  21.0744083
  46.3828553   1.9341673  20.8204083  46.9428553   3.1001673  20.3644083
  46.8238553   2.5731673  20.9324083  47.4398553  15.2911673  31.4544083
  48.2078553  15.2111673  31.0484083  46.8568553  15.1701673  30.8164083
  47.4668553  15.2611673  31.3004083  53.7168553  15.8941673  24.3554083
  53.2618553  16.6111673  24.5564083  53.1028553  15.3231673  24.1134083
  53.5588553  15.9161673  24.3494083  45.4888553   1.9041673  25.4874083
  45.5628553   2.4721673  24.8294083  45.6098553   2.3961673  26.1974083
  45.5168553   2.0611673  25.4954083  50.7138553  11.7391673  23.8994083
  51.4148553  11.2571673  24.0884083  50.0538553  11.1701673  23.9444083
  50.7198553  11.5841673  23.9334083  41.0898553  12.6491673  33.1114083
  41.9308553  12.7121673  32.8894083  41.0528553  13.0461673  33.8874083
  41.2088553  12.7171673  33.1934083  43.0528553   8.1601673  27.8604083
  43.2248553   7.9501673  28.6894083  42.3978553   7.6261673  27.6444083
  42.9818553   8.0501673  27.9514083  43.8028553   8.0981673  30.4504083
  43.8558553   8.9451673  30.6524083  43.5178553   7.7281673  31.1874083
  43.7688553   8.1681673  30.5884083  49.9798553   8.7931673  29.5804083
  49.4658553   8.3811673  30.1514083  49.8538553   9.6371673  29.7614083
  49.8858553   8.8571673  29.6914083  36.6238553  12.4691673  36.6614083
  37.3798553  12.8181673  36.9194083  36.8008553  11.6161673  36.6044083
  36.7618553  12.3941673  36.6914083  53.0008553   2.2541673  32.5194083
  53.7728553   2.0291673  32.8564083  52.5258553   2.4711673  33.2194083
  53.0448553   2.2531673  32.6724083  53.2328553   9.2321673  19.7074083
  53.3518553   8.9451673  20.5224083  54.0398553   9.2531673  19.3774083
  53.3688553   9.1931673  19.7794083  40.3688553   8.9641673  25.0384083
  41.2198553   8.8841673  24.8654083  40.0118553   8.2821673  24.6264083
  40.4418553   8.8511673  24.9514083  39.1358553  15.6891673  26.2754083
  38.4628553  15.1911673  26.0304083  39.5388553  15.8741673  25.5244083
  39.0958553  15.6431673  26.1284083  38.6858553   2.6391673  28.5714083
  39.5288553   2.8591673  28.5284083  38.2968553   3.2121673  28.0404083
  38.7528553   2.7561673  28.4864083  55.4668553  13.7411673  33.9614083
  54.7848553  14.0511673  33.5144083  55.0978553  13.2831673  34.6064083
  55.3108553  13.7191673  33.9904083  51.1278553   5.7691673  19.2924083
  50.9078553   6.5001673  18.8704083  50.6798553   5.8201673  20.0394083
  51.0288553   5.8841673  19.3404083  42.7368553   8.9711673  23.2734083
  43.4498553   9.4661673  23.3634083  42.9588553   8.4041673  22.6474083
  42.8748553   8.9601673  23.1944083  36.8928553  10.6141673  26.5934083
  36.2258553  11.1021673  26.8694083  37.5728553  11.1591673  26.6224083
  36.8948553  10.7661673  26.6384083  44.5398553   4.3241673  36.6894083
  44.0558553   4.9011673  37.1314083  44.5118553   4.6191673  35.8684083
  44.4638553   4.4531673  36.6334083  55.6378553   5.0081673  31.3014083
  55.8528553   4.2081673  31.0254083  54.7878553   5.0681673  31.1124083
  55.5438553   4.8991673  31.2324083  36.9588553   7.2981673  21.6964083
  36.7738553   6.4591673  21.8484083  37.6178553   7.2621673  21.1264083
  37.0288553   7.1691673  21.6344083  47.2598553  12.6741673  25.6004083
  46.7368553  13.3081673  25.3074083  47.5698553  12.3101673  24.8714083
  47.2278553  12.7141673  25.4494083  37.1308553  11.4621673  21.2714083
  37.6828553  12.0311673  21.6354083  36.8988553  10.9471673  21.9364083
  37.1778553  11.4701673  21.4234083  41.3348553  10.4621673  28.3604083
  41.8018553  10.7511673  29.0384083  41.9068553   9.9841673  27.9064083
  41.4888553  10.4341673  28.3934083  36.9608553   9.9111673  18.8994083
  37.7168553   9.4791673  18.9574083  36.9758553  10.4431673  19.5904083
  37.0748553   9.9261673  19.0104083  37.9008553   8.1321673  26.9044083
  38.3318553   8.0031673  26.1574083  37.6958553   8.9801673  26.8784083
  37.9338553   8.2381673  26.7904083  53.3008553  14.1231673  32.0514083
  52.6298553  14.6371673  32.2694083  53.3638553  14.2231673  31.1874083
  53.2108553  14.2141673  31.9564083  41.9848553  11.6481673  25.1864083
  42.1108553  12.4911673  25.3734083  42.6528553  11.2491673  25.5824083
  42.1028553  11.7141673  25.2724083  40.1148553   5.1311673  35.0484083
  39.5788553   4.6251673  35.5164083  40.1348553   4.7411673  34.2684083
  40.0378553   4.9981673  35.0024083  40.5998553   4.5281673  20.1884083
  40.4718553   4.0801673  20.9264083  40.0178553   4.1861673  19.6364083
  40.4948553   4.4111673  20.2164083  40.7668553   6.3581673  26.7874083
  39.9858553   6.2991673  26.4044083  40.8388553   5.6061673  27.2244083
  40.6618553   6.2391673  26.7954083  41.1968553   6.0951673  30.2554083
  41.2218553   5.4201673  29.7044083  40.5508553   6.5911673  29.9434083
  41.1058553   6.0681673  30.1284083  51.0918553   3.8081673  28.6514083
  50.4298553   4.1361673  29.1144083  51.2788553   4.4421673  28.0824083
  51.0218553   3.9501673  28.6354083  45.2968553  14.8721673  29.6474083
  45.0198553  14.2311673  29.1244083  45.0888553  15.5981673  29.2094083
  45.2258553  14.8851673  29.5054083  49.2848553   1.7771673  22.1624083
  49.7748553   2.4941673  22.0854083  48.4948553   2.0381673  21.8994083
  49.2408553   1.9211673  22.1124083  38.9958553   7.4501673  35.8144083
  38.9588553   7.9511673  35.1004083  39.3268553   6.6981673  35.5194083
  39.0388553   7.4121673  35.6654083  50.5988553   9.6551673  34.0724083
  51.0828553  10.3731673  34.1704083  50.9928553   9.2281673  33.4214083
  50.7288553   9.6981673  33.9904083  44.8948553  12.5001673  35.2494083
  45.2488553  12.3221673  36.0264083  44.4588553  11.7711673  35.0504083
  44.8828553  12.3661673  35.3354083  45.8668553   3.2471673  27.8874083
  46.3468553   3.9461673  28.0954083  46.2398553   2.6001673  28.3384083
  45.9928553   3.2551673  27.9844083  48.0558553   6.4161673  20.1614083
  48.0478553   7.1381673  19.6714083  47.4168553   6.5511673  20.7384083
  47.9608553   6.5431673  20.1744083  53.0278553  10.2861673  24.1424083
  53.3838553   9.9361673  24.8574083  53.0198553   9.6251673  23.5724083
  53.0798553  10.1361673  24.1634083  49.0728553  13.3521673  27.9864083
  48.4698553  13.0561673  27.4294083  49.6178553  13.8041673  27.4774083
  49.0638553  13.3751673  27.8284083  49.0858553  10.2031673  27.3864083
  48.2888553  10.4271673  27.6604083  49.3438553   9.6091673  27.9714083
  49.0058553  10.1481673  27.5134083  42.9778553  15.0151673  21.8344083
  42.8308553  14.2391673  22.2054083  43.6668553  14.8681673  21.3194083
  43.0578553  14.8781673  21.8134083  45.2698553  14.5311673  20.2364083
  45.8918553  14.6941673  20.8264083  45.3058553  15.2221673  19.7044083
  45.3668553  14.6571673  20.2454083  52.3458553   8.2011673  32.2324083
  52.4008553   8.3261673  31.3704083  53.0988553   8.5211673  32.5344083
  52.4648553   8.2661673  32.1494083  48.5368553  13.5501673  36.5094083
  48.7008553  13.8331673  37.3184083  48.7998553  14.2111673  36.0044083
  48.5998553  13.6901673  36.5544083  39.7708553   7.0651673  21.0654083
  40.0948553   6.2861673  20.8434083  40.4168553   7.4331673  21.5204083
  39.9138553   7.0041673  21.0994083  48.0768553   8.0071673  31.8324083
  47.9218553   8.6171673  32.4364083  48.6108553   7.4491673  32.2384083
  48.1328553   8.0151673  31.9814083  46.4608553   6.4071673  22.4904083
  46.5198553   7.0571673  23.0694083  46.2718553   5.7111673  22.9814083
  46.4418553   6.4001673  22.6484083  51.6868553  10.7361673  28.3594083
  51.2078553  11.0341673  27.6934083  51.3308553   9.9601673  28.5374083
  51.5638553  10.6651673  28.2874083  45.6838553   8.4541673  26.9214083
  44.8368553   8.2601673  27.0024083  46.0078553   8.2891673  27.7144083
  45.6058553   8.4011673  27.0504083  42.4358553  15.1841673  17.8074083
  42.8748553  14.4871673  18.0954083  42.6428553  15.8081673  18.3804083
  42.5318553  15.1731673  17.9344083  39.5318553   8.1471673  29.2374083
  40.2538553   8.6351673  29.2004083  39.2618553   8.1171673  28.4084083
  39.5988553   8.2151673  29.1094083  42.7618553   3.3181673  25.9724083
  43.6078553   3.1281673  26.0704083  42.3918553   2.5411673  25.8344083
  42.8318553   3.1751673  25.9664083  55.3788553  14.9021673  20.2994083
  56.0728553  14.4351673  20.0514083  54.8398553  14.3041673  20.6364083
  55.4018553  14.7441673  20.3124083  37.5828553   4.6561673  22.6274083
  38.0718553   4.3641673  23.2884083  37.7118553   4.0631673  22.0004083
  37.6738553   4.5251673  22.6324083  52.6178553   7.6781673  29.4784083
  52.6108553   6.9021673  29.8764083  51.7768553   7.9121673  29.4714083
  52.4928553   7.5981673  29.5364083  42.1078553   6.0901673  18.1134083
  41.4978553   5.6851673  18.5874083  41.7218553   6.2081673  17.3404083
  41.9608553   6.0471673  18.0694083  38.9268553   9.1991673  33.5154083
  38.5058553   8.6811673  32.9544083  38.5748553   9.9851673  33.3724083
  38.8128553   9.2391673  33.4114083  53.8738553   7.7491673  26.9154083
  53.5878553   8.1501673  27.6354083  54.7338553   7.6871673  27.0424083
  53.9588553   7.7991673  27.0404083  43.5628553   4.5511673  20.8234083
  43.8348553   5.3771673  20.8904083  42.6998553   4.6261673  20.7274083
  43.4758553   4.6841673  20.8184083  55.0048553  13.3821673  27.4444083
  55.2948553  13.6391673  26.6634083  55.6998553  13.4781673  27.9634083
  55.1508553  13.4341673  27.4054083  50.0278553   5.2421673  35.5314083
  50.1008553   5.3461673  36.3944083  49.3938553   5.8001673  35.3104083
  49.9448553   5.3401673  35.6264083  52.2958553   5.5611673  33.8964083
  52.6148553   6.3471673  34.0994083  51.9258553   5.2911673  34.6394083
  52.2888553   5.6371673  34.0364083  51.6098553  11.9851673  19.4264083
  51.9438553  11.1791673  19.4614083  50.8548553  11.9131673  19.8564083
  51.5478553  11.8551673  19.4954083  52.0918553   3.8191673  25.0854083
  51.3468553   3.4961673  25.4034083  52.0938553   4.6451673  25.3654083
  51.9818553   3.8931673  25.1734083  54.9938553   6.1031673  36.6314083
  54.9418553   5.7621673  35.8304083  55.7308553   6.5701673  36.6094083
  55.0948553   6.1221673  36.5094083  54.5318553   9.7791673  32.8374083
  55.1598553   9.2301673  32.5814083  54.4708553  10.3441673  32.1754083
  54.6158553   9.7821673  32.7014083  48.9838553   9.8601673  18.8294083
  49.6678553   9.3461673  18.6604083  48.5668553   9.9061673  18.0644083
  49.0228553   9.7911673  18.6914083  43.6658553  11.0101673  30.1334083
  43.3678553  11.6021673  30.7004083  43.7208553  11.4521673  29.3844083
  43.6298553  11.1631673  30.1064083  41.6448553   9.9601673  33.5314083
  40.8388553   9.6701673  33.6984083  41.5558553  10.8281673  33.5374083
  41.5128553  10.0451673  33.5564083  46.1818553   7.4331673  29.6244083
  46.6578553   7.8071673  30.2524083  45.3588553   7.5671673  29.8834083
  46.1308553   7.5081673  29.7554083  42.8918553   3.0361673  32.3654083
  43.0528553   2.2921673  32.7924083  42.8468553   2.7871673  31.5304083
  42.9088553   2.8891673  32.3054083  45.4458553  14.8261673  24.8524083
  45.9918553  15.5051673  24.9064083  45.0958553  14.9081673  24.0574083
  45.4748553  14.9391673  24.7424083  43.6288553  13.0541673  28.2414083
  43.0048553  13.6361673  28.0594083  43.8768553  12.7681673  27.4554083
  43.5728553  13.0981673  28.0984083  47.9378553   9.6881673  35.2304083
  48.6948553   9.9741673  34.9044083  47.3908553   9.7401673  34.5524083
  47.9688553   9.7381673  35.0814083  51.8468553  12.2381673  33.7344083
  52.1928553  12.5081673  34.4884083  52.1408553  12.8201673  33.1544083
  51.9418553  12.3641673  33.7604083  53.7098553   4.3841673  19.0734083
  54.0878553   5.0611673  18.6734083  52.8678553   4.6081673  19.1044083
  53.6408553   4.5171673  19.0184083  45.2228553   7.8301673  18.1564083
  44.4178553   7.6531673  17.8714083  45.1898553   8.6811673  18.3484083
  45.0988553   7.9291673  18.1434083  41.1528553   3.8971673  28.3064083
  41.5928553   3.7941673  27.5604083  41.6978553   3.5841673  28.9114083
  41.2978553   3.8361673  28.2854083  49.1688553   2.9991673  33.8984083
  48.5208553   3.4691673  34.2464083  49.7338553   2.9101673  34.5574083
  49.1568553   3.0551673  34.0474083  48.8568553   4.5361673  30.1964083
  49.1588553   4.9561673  30.8994083  48.8928553   3.6961673  30.4284083
  48.9068553   4.4741673  30.3344083  46.2818553  14.7031673  34.1214083
  46.7598553  14.1031673  33.7054083  45.9308553  14.2601673  34.7864083
  46.3008553  14.5491673  34.1584083  51.4048553   3.9831673  22.4484083
  51.6118553   3.7821673  23.2724083  52.1608553   4.2511673  22.1064083
  51.5468553   3.9931673  22.5194083  52.8698553   8.0101673  22.3024083
  53.3458553   7.2811673  22.2544083  52.0488553   7.7241673  22.2264083
  52.8188553   7.8601673  22.2834083  46.3408553   9.9221673  33.1414083
  45.5458553   9.8581673  33.4924083  46.4118553  10.7691673  32.9464083
  46.2338553  10.0371673  33.1644083  42.1708553  16.1291673  28.4584083
  42.1818553  16.1881673  29.3284083  41.7458553  15.3821673  28.3084083
  42.1098553  16.0271673  28.5644083  49.0858553   9.1771673  24.6574083
  49.1618553   9.5181673  25.4564083  49.2548553   8.3301673  24.7784083
  49.1218553   9.1021673  24.7934083  46.6078553   8.4511673  24.2224083
  46.3098553   8.1361673  24.9794083  47.3028553   8.9241673  24.4574083
  46.6668553   8.4741673  24.3694083  46.8298553  12.5691673  32.2494083
  47.5168553  12.4551673  32.7744083  46.9638553  13.3601673  31.9054083
  46.9508553  12.6691673  32.2764083  55.0058553   5.1781673  34.0604083
  54.1508553   5.0561673  34.1864083  55.1588553   4.7831673  33.2974083
  54.9018553   5.1011673  33.9664083  49.5188553   5.8431673  32.6364083
  49.2638553   5.1241673  33.0584083  50.3398553   5.9591673  32.9064083
  49.6028553   5.7541673  32.7384083  38.9348553  15.6271673  33.9004083
  38.2808553  15.0581673  33.9984083  38.5598553  16.4001673  34.0514083
  38.7828553  15.6571673  33.9374083  47.4528553   7.0331673  35.8234083
  47.7758553   7.7191673  35.3914083  46.7488553   7.3561673  36.2254083
  47.3958553   7.1821673  35.8184083  50.5368553  15.4071673  26.7524083
  50.0858553  16.0501673  27.1314083  51.2448553  15.3281673  27.2574083
  50.5748553  15.4901673  26.8834083  47.2378553  10.4971673  29.6824083
  46.5438553  10.8991673  30.0254083  47.9148553  10.9301673  30.0214083
  47.2348553  10.6201673  29.7834083  52.6148553  13.0901673  36.2624083
  53.3908553  12.7001673  36.3454083  52.1458553  12.7541673  36.9174083
  52.6598553  12.9831673  36.3714083  40.3058553   4.0351673  32.0294083
  40.6808553   4.6541673  31.5424083  40.9798553   3.5611673  32.3144083
  40.4608553   4.0571673  31.9994083  38.0808553   2.4831673  31.3044083
  38.1578553   2.3141673  30.4514083  38.8268553   2.8891673  31.5014083
  38.2018553   2.5181673  31.2074083  53.6398553   5.1231673  21.7444083
  53.7428553   5.0651673  20.8804083  54.3808553   4.7911673  22.0624083
  53.7648553   5.0661673  21.6634083  47.5598553  12.0881673  22.8514083
  47.3548553  12.9211673  22.6924083  46.7848553  11.7061673  22.9734083
  47.4148553  12.1551673  22.8464083  52.7418553   5.2691673  31.1004083
  52.7398553   4.4061673  31.2244083  52.8088553   5.5931673  31.9074083
  52.7518553   5.1891673  31.2374083  37.4778553   7.7091673  31.5284083
  37.7978553   7.9281673  30.7474083  37.3778553   6.8441673  31.4734083
  37.5098553   7.6141673  31.4054083  38.9338553   3.6451673  18.1464083
  38.2618553   3.6591673  18.7024083  39.0288553   2.7971673  17.9624083
  38.8488553   3.5221673  18.2014083  42.9218553  12.3501673  19.2604083
  43.3628553  12.4301673  20.0084083  42.1168553  12.1341673  19.5184083
  42.8678553  12.3301673  19.4094083  42.2408553   7.0011673  32.9134083
  41.8448553   7.7751673  32.9884083  41.8348553   6.6281673  32.2374083
  42.1228553   7.0601673  32.8244083  51.5168553   6.0551673  27.0274083
  52.1828553   6.5961673  27.1874083  51.1718553   6.3661673  26.2884083
  51.5638553   6.1811673  26.9424083  51.8298553  14.1211673  22.8344083
  51.6558553  13.4671673  23.3844083  52.5428553  13.8501673  22.4114083
  51.9098553  13.9841673  22.8534083  40.2508553  11.4201673  19.8614083
  40.0068553  11.1131673  20.6414083  40.2178553  10.7171673  19.3454083
  40.2098553  11.2711673  19.9004083  43.0698553   9.6651673  18.6044083
  42.2518553   9.3971673  18.7444083  43.0418553  10.5171673  18.7894083
  42.9448553   9.7521673  18.6524083  49.5048553  11.5741673  30.5254083
  49.7108553  11.8751673  31.3174083  49.4438553  12.2961673  30.0404083
  49.5258553  11.7251673  30.5704083  49.0388553  15.7881673  34.7714083
  48.2858553  15.7701673  34.3304083  49.2068553  16.6401673  34.8554083
  48.9528553  15.9111673  34.7184083  44.2758553   5.0551673  33.9414083
  43.9538553   4.4791673  33.3714083  43.9168553   5.8101673  33.6954083
  44.1758553   5.0811673  33.8214083  54.3168553  10.2131673  29.9834083
  54.2848553   9.3511673  29.8484083  53.6238553  10.5151673  29.5494083
  54.2098553  10.1301673  29.8994083  42.7108553  15.4111673  34.1894083
  42.7518553  15.5371673  35.0524083  43.3618553  14.8511673  34.0334083
  42.8128553  15.3471673  34.2944083  52.4218553  13.4731673  28.7804083
  52.9488553  13.3901673  28.0894083  52.0308553  12.6951673  28.8344083
  52.4418553  13.3461673  28.6864083  40.3038553  13.7941673  35.5494083
  40.8988553  14.2251673  36.0214083  39.9398553  14.4181673  35.0604083
  40.3378553  13.9501673  35.5464083  48.2948553   4.7251673  25.4814083
  48.8458553   4.1181673  25.7814083  47.8698553   4.9881673  26.1964083
  48.3138553   4.6741673  25.6304083  38.5428553   3.3751673  24.9674083
  38.1748553   3.6771673  25.6984083  39.0768553   2.7461673  25.2514083
  38.5668553   3.3271673  25.1174083  38.2308553  11.7831673  32.4784083
  37.6568553  12.1991673  32.9874083  38.9638553  12.2481673  32.5734083
  38.2548553  11.9131673  32.5674083  50.2648553   6.5561673  22.0434083
  50.3328553   5.7061673  22.2244083  49.4418553   6.6421673  21.7654083
  50.1528553   6.4431673  22.0294083  40.0168553  15.0501673  21.2534083
  39.8718553  15.2061673  20.4074083  40.8828553  15.1291673  21.3314083
  40.1238553  15.0851673  21.1404083  44.1838553   7.4471673  20.9814083
  44.2838553   7.5861673  20.1264083  45.0018553   7.3871673  21.2774083
  44.3188553   7.4581673  20.8984083  53.3438553  15.5111673  18.4614083
  53.9808553  15.3771673  19.0424083  53.0028553  14.7171673  18.3444083
  53.3878553  15.3741673  18.5294083  53.5388553   7.9291673  35.1944083
  54.1728553   7.7591673  35.7684083  53.9558553   8.3321673  34.5424083
  53.6938553   7.9641673  35.1834083  49.4188553  11.7761673  20.7834083
  49.1678553  11.6481673  21.6094083  49.1018553  11.0811673  20.3624083
  49.3348553  11.6551673  20.8434083  54.1638553   2.4931673  35.9324083
  53.9678553   3.1371673  36.4874083  53.4418553   2.0031673  35.9244083
  54.0288553   2.5161673  36.0134083  54.0628553   3.4341673  28.9034083
  53.2298553   3.6841673  28.8314083  54.0068553   2.5941673  29.1324083
  53.9318553   3.3471673  28.9264083  50.9498553   8.0401673  36.5494083
  51.8208553   8.0041673  36.5134083  50.7308553   8.4601673  35.8174083
  51.0468553   8.0961673  36.4364083  40.7038553  13.8651673  27.7304083
  40.6248553  13.0551673  27.4144083  40.2598553  14.3521673  27.1584083
  40.6268553  13.8171673  27.5994083  46.3048553   9.9841673  20.2134083
  47.0218553   9.6371673  19.8574083  46.2708553  10.7841673  19.8654083
  46.4058553  10.0511673  20.1094083  38.2758553  16.1091673  31.3114083
  38.7688553  16.0531673  32.0294083  38.4638553  15.3761673  30.8764083
  38.3768553  15.9921673  31.3534083  47.5228553   5.5411673   9.1231673
  46.9988553   6.1371673   9.4861673  47.9198553   5.1731673   9.8071673
  47.5038553   5.5751673   9.2781673  37.3918553   9.6811673   4.5791673
  36.9508553   9.7991673   5.3221673  37.1088553   8.9061673   4.2941673
  37.2848553   9.5841673   4.6471673  53.6668553  12.9821673   2.0941673
  54.3678553  12.4631673   2.0901673  53.0798553  12.5371673   1.6251673
  53.6838553  12.8391673   2.0241673  50.1938553   6.6081673   5.7991673
  50.2738553   6.6121673   4.9301673  49.6098553   5.9761673   5.9481673
  50.1188553   6.5151673   5.6931673  39.9008553  10.3771673   3.6581673
  40.5088553  10.2071673   4.2611673  39.1498553  10.2371673   4.0791673
  39.8798553  10.3311673   3.8091673  37.3318553  12.4161673  10.8341673
  37.4608553  12.1361673  11.6501673  36.7218553  11.8751673  10.5251673
  37.2608553  12.2951673  10.9091673  43.9058553   9.9411673  15.9011673
  43.6698553   9.9381673  16.7411673  43.1578553   9.7931673  15.4771673
  43.7598553   9.9181673  15.9621673  38.7778553   6.9371673   5.0361673
  38.3158553   6.5451673   4.4091673  39.4778553   6.4241673   5.1281673
  38.8128553   6.8041673   4.9571673  43.8878553  13.1331673  13.1641673
  44.0258553  13.8931673  12.7571673  44.6788553  12.7681673  13.1911673
  44.0248553  13.1921673  13.1081673  40.7788553   5.0371673   5.0591673
  41.5958553   4.8501673   5.3021673  40.3018553   4.4231673   5.4551673
  40.8288553   4.9191673   5.1541673  44.9828553  11.0181673   7.6691673
  45.3308553  10.2191673   7.6991673  45.6478553  11.5221673   7.4141673
  45.1328553  10.9741673   7.6361673  45.0398553  10.4671673   3.8801673
  45.3708553   9.8231673   4.3661673  45.2798553  10.2561673   3.0691673
  45.1238553  10.3411673   3.8321673  47.0078553   4.5981673  15.2191673
  46.1598553   4.4991673  15.0411673  47.0368553   5.3431673  15.6731673
  46.8868553   4.6941673  15.2601673  37.2338553   4.6981673   8.0491673
  36.9778553   5.5291673   7.9741673  36.5698553   4.3151673   8.4661673
  37.0978553   4.7641673   8.1001673  37.1438553  14.4081673   5.9491673
  36.5518553  14.9661673   5.6361673  37.5698553  14.1391673   5.2371673
  37.1198553  14.4501673   5.7981673  42.9838553  12.2521673   3.4291673
  42.4048553  11.9771673   4.0211673  43.6078553  11.6431673   3.4541673
  42.9908553  12.1221673   3.5201673  47.2948553  14.9321673   2.9411673
  47.5088553  15.4591673   3.6031673  48.0618553  14.7581673   2.5621673
  47.4398553  14.9841673   2.9831673  38.6888553  13.0781673   3.8801673
  39.3448553  12.5031673   3.8951673  39.0778553  13.8271673   3.6591673
  38.8438553  13.1031673   3.8501673  49.7338553  14.9421673  11.2461673
  50.4778553  15.3981673  11.2361673  49.6128553  14.7281673  10.4091673
  49.8258553  14.9781673  11.1211673  39.5068553  11.5651673   7.3801673
  39.9298553  11.2091673   6.7061673  39.8308553  11.1431673   8.0721673
  39.6168553  11.4501673   7.3831673  42.7378553  14.4171673   6.6761673
  43.5818553  14.5211673   6.4811673  42.4408553  15.2351673   6.7441673
  42.8188553  14.5531673   6.6571673  46.5448553   3.8141673   4.7631673
  46.8318553   3.5821673   3.9731673  47.2768553   3.8931673   5.2321673
  46.6948553   3.7911673   4.7161673  41.7358553  15.6361673  12.4161673
  42.0278553  15.5691673  13.2361673  41.1098553  15.0311673  12.3711673
  41.6868553  15.5371673  12.5311673  36.6498553   1.7931673  14.4081673
  36.6458553   2.3801673  15.0541673  37.2438553   2.1051673  13.8511673
  36.7368553   1.9261673  14.4211673  48.9878553  12.1271673  14.9501673
  48.9538553  12.5091673  15.7341673  49.8418553  12.0851673  14.7791673
  49.1088553  12.1771673  15.0411673  39.7288553  13.7981673  11.5381673
  39.0308553  13.2901673  11.6641673  39.9888553  13.5931673  10.7301673
  39.6638553  13.6931673  11.4371673  46.8908553   2.5961673   2.0681673
  46.3828553   1.9341673   1.8141673  46.9428553   3.1001673   1.3581673
  46.8238553   2.5731673   1.9261673  47.4398553  15.2911673  12.4481673
  48.2078553  15.2111673  12.0421673  46.8568553  15.1701673  11.8101673
  47.4668553  15.2611673  12.2941673  53.7168553  15.8941673   5.3491673
  53.2618553  16.6111673   5.5501673  53.1028553  15.3231673   5.1071673
  53.5588553  15.9161673   5.3431673  45.4888553   1.9041673   6.4811673
  45.5628553   2.4721673   5.8231673  45.6098553   2.3961673   7.1911673
  45.5168553   2.0611673   6.4891673  50.7138553  11.7391673   4.8931673
  51.4148553  11.2571673   5.0821673  50.0538553  11.1701673   4.9381673
  50.7198553  11.5841673   4.9271673  41.0898553  12.6491673  14.1051673
  41.9308553  12.7121673  13.8831673  41.0528553  13.0461673  14.8811673
  41.2088553  12.7171673  14.1871673  43.0528553   8.1601673   8.8541673
  43.2248553   7.9501673   9.6831673  42.3978553   7.6261673   8.6381673
  42.9818553   8.0501673   8.9451673  43.8028553   8.0981673  11.4441673
  43.8558553   8.9451673  11.6461673  43.5178553   7.7281673  12.1811673
  43.7688553   8.1681673  11.5821673  49.9798553   8.7931673  10.5741673
  49.4658553   8.3811673  11.1451673  49.8538553   9.6371673  10.7551673
  49.8858553   8.8571673  10.6851673  36.6238553  12.4691673  17.6551673
  37.3798553  12.8181673  17.9131673  36.8008553  11.6161673  17.5981673
  36.7618553  12.3941673  17.6851673  53.0008553   2.2541673  13.5131673
  53.7728553   2.0291673  13.8501673  52.5258553   2.4711673  14.2131673
  53.0448553   2.2531673  13.6661673  40.3688553   8.9641673   6.0321673
  41.2198553   8.8841673   5.8591673  40.0118553   8.2821673   5.6201673
  40.4418553   8.8511673   5.9451673  39.1358553  15.6891673   7.2691673
  38.4628553  15.1911673   7.0241673  39.5388553  15.8741673   6.5181673
  39.0958553  15.6431673   7.1221673  38.6858553   2.6391673   9.5651673
  39.5288553   2.8591673   9.5221673  38.2968553   3.2121673   9.0341673
  38.7528553   2.7561673   9.4801673  55.4668553  13.7411673  14.9551673
  54.7848553  14.0511673  14.5081673  55.0978553  13.2831673  15.6001673
  55.3108553  13.7191673  14.9841673  42.7368553   8.9711673   4.2671673
  43.4498553   9.4661673   4.3571673  42.9588553   8.4041673   3.6411673
  42.8748553   8.9601673   4.1881673  36.8928553  10.6141673   7.5871673
  36.2258553  11.1021673   7.8631673  37.5728553  11.1591673   7.6161673
  36.8948553  10.7661673   7.6321673  44.5398553   4.3241673  17.6831673
  44.0558553   4.9011673  18.1251673  44.5118553   4.6191673  16.8621673
  44.4638553   4.4531673  17.6271673  55.6378553   5.0081673  12.2951673
  55.8528553   4.2081673  12.0191673  54.7878553   5.0681673  12.1061673
  55.5438553   4.8991673  12.2261673  36.9588553   7.2981673   2.6901673
  36.7738553   6.4591673   2.8421673  37.6178553   7.2621673   2.1201673
  37.0288553   7.1691673   2.6281673  47.2598553  12.6741673   6.5941673
  46.7368553  13.3081673   6.3011673  47.5698553  12.3101673   5.8651673
  47.2278553  12.7141673   6.4431673  37.1308553  11.4621673   2.2651673
  37.6828553  12.0311673   2.6291673  36.8988553  10.9471673   2.9301673
  37.1778553  11.4701673   2.4171673  41.3348553  10.4621673   9.3541673
  41.8018553  10.7511673  10.0321673  41.9068553   9.9841673   8.9001673
  41.4888553  10.4341673   9.3871673  37.9008553   8.1321673   7.8981673
  38.3318553   8.0031673   7.1511673  37.6958553   8.9801673   7.8721673
  37.9338553   8.2381673   7.7841673  53.3008553  14.1231673  13.0451673
  52.6298553  14.6371673  13.2631673  53.3638553  14.2231673  12.1811673
  53.2108553  14.2141673  12.9501673  41.9848553  11.6481673   6.1801673
  42.1108553  12.4911673   6.3671673  42.6528553  11.2491673   6.5761673
  42.1028553  11.7141673   6.2661673  40.1148553   5.1311673  16.0421673
  39.5788553   4.6251673  16.5101673  40.1348553   4.7411673  15.2621673
  40.0378553   4.9981673  15.9961673  40.7668553   6.3581673   7.7811673
  39.9858553   6.2991673   7.3981673  40.8388553   5.6061673   8.2181673
  40.6618553   6.2391673   7.7891673  41.1968553   6.0951673  11.2491673
  41.2218553   5.4201673  10.6981673  40.5508553   6.5911673  10.9371673
  41.1058553   6.0681673  11.1221673  51.0918553   3.8081673   9.6451673
  50.4298553   4.1361673  10.1081673  51.2788553   4.4421673   9.0761673
  51.0218553   3.9501673   9.6291673  45.2968553  14.8721673  10.6411673
  45.0198553  14.2311673  10.1181673  45.0888553  15.5981673  10.2031673
  45.2258553  14.8851673  10.4991673  49.2848553   1.7771673   3.1561673
  49.7748553   2.4941673   3.0791673  48.4948553   2.0381673   2.8931673
  49.2408553   1.9211673   3.1061673  38.9958553   7.4501673  16.8081673
  38.9588553   7.9511673  16.0941673  39.3268553   6.6981673  16.5131673
  39.0388553   7.4121673  16.6591673  50.5988553   9.6551673  15.0661673
  51.0828553  10.3731673  15.1641673  50.9928553   9.2281673  14.4151673
  50.7288553   9.6981673  14.9841673  44.8948553  12.5001673  16.2431673
  45.2488553  12.3221673  17.0201673  44.4588553  11.7711673  16.0441673
  44.8828553  12.3661673  16.3291673  45.8668553   3.2471673   8.8811673
  46.3468553   3.9461673   9.0891673  46.2398553   2.6001673   9.3321673
  45.9928553   3.2551673   8.9781673  53.0278553  10.2861673   5.1361673
  53.3838553   9.9361673   5.8511673  53.0198553   9.6251673   4.5661673
  53.0798553  10.1361673   5.1571673  49.0728553  13.3521673   8.9801673
  48.4698553  13.0561673   8.4231673  49.6178553  13.8041673   8.4711673
  49.0638553  13.3751673   8.8221673  49.0858553  10.2031673   8.3801673
  48.2888553  10.4271673   8.6541673  49.3438553   9.6091673   8.9651673
  49.0058553  10.1481673   8.5071673  42.9778553  15.0151673   2.8281673
  42.8308553  14.2391673   3.1991673  43.6668553  14.8681673   2.3131673
  43.0578553  14.8781673   2.8071673  52.3458553   8.2011673  13.2261673
  52.4008553   8.3261673  12.3641673  53.0988553   8.5211673  13.5281673
  52.4648553   8.2661673  13.1431673  48.5368553  13.5501673  17.5031673
  48.7008553  13.8331673  18.3121673  48.7998553  14.2111673  16.9981673
  48.5998553  13.6901673  17.5481673  39.7708553   7.0651673   2.0591673
  40.0948553   6.2861673   1.8371673  40.4168553   7.4331673   2.5141673
  39.9138553   7.0041673   2.0931673  48.0768553   8.0071673  12.8261673
  47.9218553   8.6171673  13.4301673  48.6108553   7.4491673  13.2321673
  48.1328553   8.0151673  12.9751673  46.4608553   6.4071673   3.4841673
  46.5198553   7.0571673   4.0631673  46.2718553   5.7111673   3.9751673
  46.4418553   6.4001673   3.6421673  51.6868553  10.7361673   9.3531673
  51.2078553  11.0341673   8.6871673  51.3308553   9.9601673   9.5311673
  51.5638553  10.6651673   9.2811673  45.6838553   8.4541673   7.9151673
  44.8368553   8.2601673   7.9961673  46.0078553   8.2891673   8.7081673
  45.6058553   8.4011673   8.0441673  39.5318553   8.1471673  10.2311673
  40.2538553   8.6351673  10.1941673  39.2618553   8.1171673   9.4021673
  39.5988553   8.2151673  10.1031673  42.7618553   3.3181673   6.9661673
  43.6078553   3.1281673   7.0641673  42.3918553   2.5411673   6.8281673
  42.8318553   3.1751673   6.9601673  37.5828553   4.6561673   3.6211673
  38.0718553   4.3641673   4.2821673  37.7118553   4.0631673   2.9941673
  37.6738553   4.5251673   3.6261673  52.6178553   7.6781673  10.4721673
  52.6108553   6.9021673  10.8701673  51.7768553   7.9121673  10.4651673
  52.4928553   7.5981673  10.5301673  38.9268553   9.1991673  14.5091673
  38.5058553   8.6811673  13.9481673  38.5748553   9.9851673  14.3661673
  38.8128553   9.2391673  14.4051673  53.8738553   7.7491673   7.9091673
  53.5878553   8.1501673   8.6291673  54.7338553   7.6871673   8.0361673
  53.9588553   7.7991673   8.0341673  43.5628553   4.5511673   1.8171673
  43.8348553   5.3771673   1.8841673  42.6998553   4.6261673   1.7211673
  43.4758553   4.6841673   1.8121673  55.0048553  13.3821673   8.4381673
  55.2948553  13.6391673   7.6571673  55.6998553  13.4781673   8.9571673
  55.1508553  13.4341673   8.3991673  50.0278553   5.2421673  16.5251673
  50.1008553   5.3461673  17.3881673  49.3938553   5.8001673  16.3041673
  49.9448553   5.3401673  16.6201673  52.2958553   5.5611673  14.8901673
  52.6148553   6.3471673  15.0931673  51.9258553   5.2911673  15.6331673
  52.2888553   5.6371673  15.0301673  52.0918553   3.8191673   6.0791673
  51.3468553   3.4961673   6.3971673  52.0938553   4.6451673   6.3591673
  51.9818553   3.8931673   6.1671673  54.9938553   6.1031673  17.6251673
  54.9418553   5.7621673  16.8241673  55.7308553   6.5701673  17.6031673
  55.0948553   6.1221673  17.5031673  54.5318553   9.7791673  13.8311673
  55.1598553   9.2301673  13.5751673  54.4708553  10.3441673  13.1691673
  54.6158553   9.7821673  13.6951673  43.6658553  11.0101673  11.1271673
  43.3678553  11.6021673  11.6941673  43.7208553  11.4521673  10.3781673
  43.6298553  11.1631673  11.1001673  41.6448553   9.9601673  14.5251673
  40.8388553   9.6701673  14.6921673  41.5558553  10.8281673  14.5311673
  41.5128553  10.0451673  14.5501673  46.1818553   7.4331673  10.6181673
  46.6578553   7.8071673  11.2461673  45.3588553   7.5671673  10.8771673
  46.1308553   7.5081673  10.7491673  42.8918553   3.0361673  13.3591673
  43.0528553   2.2921673  13.7861673  42.8468553   2.7871673  12.5241673
  42.9088553   2.8891673  13.2991673  45.4458553  14.8261673   5.8461673
  45.9918553  15.5051673   5.9001673  45.0958553  14.9081673   5.0511673
  45.4748553  14.9391673   5.7361673  43.6288553  13.0541673   9.2351673
  43.0048553  13.6361673   9.0531673  43.8768553  12.7681673   8.4491673
  43.5728553  13.0981673   9.0921673  47.9378553   9.6881673  16.2241673
  48.6948553   9.9741673  15.8981673  47.3908553   9.7401673  15.5461673
  47.9688553   9.7381673  16.0751673  51.8468553  12.2381673  14.7281673
  52.1928553  12.5081673  15.4821673  52.1408553  12.8201673  14.1481673
  51.9418553  12.3641673  14.7541673  41.1528553   3.8971673   9.3001673
  41.5928553   3.7941673   8.5541673  41.6978553   3.5841673   9.9051673
  41.2978553   3.8361673   9.2791673  49.1688553   2.9991673  14.8921673
  48.5208553   3.4691673  15.2401673  49.7338553   2.9101673  15.5511673
  49.1568553   3.0551673  15.0411673  48.8568553   4.5361673  11.1901673
  49.1588553   4.9561673  11.8931673  48.8928553   3.6961673  11.4221673
  48.9068553   4.4741673  11.3281673  46.2818553  14.7031673  15.1151673
  46.7598553  14.1031673  14.6991673  45.9308553  14.2601673  15.7801673
  46.3008553  14.5491673  15.1521673  51.4048553   3.9831673   3.4421673
  51.6118553   3.7821673   4.2661673  52.1608553   4.2511673   3.1001673
  51.5468553   3.9931673   3.5131673  52.8698553   8.0101673   3.2961673
  53.3458553   7.2811673   3.2481673  52.0488553   7.7241673   3.2201673
  52.8188553   7.8601673   3.2771673  46.3408553   9.9221673  14.1351673
  45.5458553   9.8581673  14.4861673  46.4118553  10.7691673  13.9401673
  46.2338553  10.0371673  14.1581673  42.1708553  16.1291673   9.4521673
  42.1818553  16.1881673  10.3221673  41.7458553  15.3821673   9.3021673
  42.1098553  16.0271673   9.5581673  49.0858553   9.1771673   5.6511673
  49.1618553   9.5181673   6.4501673  49.2548553   8.3301673   5.7721673
  49.1218553   9.1021673   5.7871673  46.6078553   8.4511673   5.2161673
  46.3098553   8.1361673   5.9731673  47.3028553   8.9241673   5.4511673
  46.6668553   8.4741673   5.3631673  46.8298553  12.5691673  13.2431673
  47.5168553  12.4551673  13.7681673  46.9638553  13.3601673  12.8991673
  46.9508553  12.6691673  13.2701673  55.0058553   5.1781673  15.0541673
  54.1508553   5.0561673  15.1801673  55.1588553   4.7831673  14.2911673
  54.9018553   5.1011673  14.9601673  49.5188553   5.8431673  13.6301673
  49.2638553   5.1241673  14.0521673  50.3398553   5.9591673  13.9001673
  49.6028553   5.7541673  13.7321673  38.9348553  15.6271673  14.8941673
  38.2808553  15.0581673  14.9921673  38.5598553  16.4001673  15.0451673
  38.7828553  15.6571673  14.9311673  47.4528553   7.0331673  16.8171673
  47.7758553   7.7191673  16.3851673  46.7488553   7.3561673  17.2191673
  47.3958553   7.1821673  16.8121673  50.5368553  15.4071673   7.7461673
  50.0858553  16.0501673   8.1251673  51.2448553  15.3281673   8.2511673
  50.5748553  15.4901673   7.8771673  47.2378553  10.4971673  10.6761673
  46.5438553  10.8991673  11.0191673  47.9148553  10.9301673  11.0151673
  47.2348553  10.6201673  10.7771673  52.6148553  13.0901673  17.2561673
  53.3908553  12.7001673  17.3391673  52.1458553  12.7541673  17.9111673
  52.6598553  12.9831673  17.3651673  40.3058553   4.0351673  13.0231673
  40.6808553   4.6541673  12.5361673  40.9798553   3.5611673  13.3081673
  40.4608553   4.0571673  12.9931673  38.0808553   2.4831673  12.2981673
  38.1578553   2.3141673  11.4451673  38.8268553   2.8891673  12.4951673
  38.2018553   2.5181673  12.2011673  53.6398553   5.1231673   2.7381673
  53.7428553   5.0651673   1.8741673  54.3808553   4.7911673   3.0561673
  53.7648553   5.0661673   2.6571673  47.5598553  12.0881673   3.8451673
  47.3548553  12.9211673   3.6861673  46.7848553  11.7061673   3.9671673
  47.4148553  12.1551673   3.8401673  52.7418553   5.2691673  12.0941673
  52.7398553   4.4061673  12.2181673  52.8088553   5.5931673  12.9011673
  52.7518553   5.1891673  12.2311673  37.4778553   7.7091673  12.5221673
  37.7978553   7.9281673  11.7411673  37.3778553   6.8441673  12.4671673
  37.5098553   7.6141673  12.3991673  42.2408553   7.0011673  13.9071673
  41.8448553   7.7751673  13.9821673  41.8348553   6.6281673  13.2311673
  42.1228553   7.0601673  13.8181673  51.5168553   6.0551673   8.0211673
  52.1828553   6.5961673   8.1811673  51.1718553   6.3661673   7.2821673
  51.5638553   6.1811673   7.9361673  51.8298553  14.1211673   3.8281673
  51.6558553  13.4671673   4.3781673  52.5428553  13.8501673   3.4051673
  51.9098553  13.9841673   3.8471673  49.5048553  11.5741673  11.5191673
  49.7108553  11.8751673  12.3111673  49.4438553  12.2961673  11.0341673
  49.5258553  11.7251673  11.5641673  49.0388553  15.7881673  15.7651673
  48.2858553  15.7701673  15.3241673  49.2068553  16.6401673  15.8491673
  48.9528553  15.9111673  15.7121673  44.2758553   5.0551673  14.9351673
  43.9538553   4.4791673  14.3651673  43.9168553   5.8101673  14.6891673
  44.1758553   5.0811673  14.8151673  54.3168553  10.2131673  10.9771673
  54.2848553   9.3511673  10.8421673  53.6238553  10.5151673  10.5431673
  54.2098553  10.1301673  10.8931673  42.7108553  15.4111673  15.1831673
  42.7518553  15.5371673  16.0461673  43.3618553  14.8511673  15.0271673
  42.8128553  15.3471673  15.2881673  52.4218553  13.4731673   9.7741673
  52.9488553  13.3901673   9.0831673  52.0308553  12.6951673   9.8281673
  52.4418553  13.3461673   9.6801673  40.3038553  13.7941673  16.5431673
  40.8988553  14.2251673  17.0151673  39.9398553  14.4181673  16.0541673
  40.3378553  13.9501673  16.5401673  48.2948553   4.7251673   6.4751673
  48.8458553   4.1181673   6.7751673  47.8698553   4.9881673   7.1901673
  48.3138553   4.6741673   6.6241673  38.5428553   3.3751673   5.9611673
  38.1748553   3.6771673   6.6921673  39.0768553   2.7461673   6.2451673
  38.5668553   3.3271673   6.1111673  38.2308553  11.7831673  13.4721673
  37.6568553  12.1991673  13.9811673  38.9638553  12.2481673  13.5671673
  38.2548553  11.9131673  13.5611673  50.2648553   6.5561673   3.0371673
  50.3328553   5.7061673   3.2181673  49.4418553   6.6421673   2.7591673
  50.1528553   6.4431673   3.0231673  40.0168553  15.0501673   2.2471673
  39.8718553  15.2061673   1.4011673  40.8828553  15.1291673   2.3251673
  40.1238553  15.0851673   2.1341673  53.5388553   7.9291673  16.1881673
  54.1728553   7.7591673  16.7621673  53.9558553   8.3321673  15.5361673
  53.6938553   7.9641673  16.1771673  49.4188553  11.7761673   1.7771673
  49.1678553  11.6481673   2.6031673  49.1018553  11.0811673   1.3561673
  49.3348553  11.6551673   1.8371673  54.1638553   2.4931673  16.9261673
  53.9678553   3.1371673  17.4811673  53.4418553   2.0031673  16.9181673
  54.0288553   2.5161673  17.0071673  54.0628553   3.4341673   9.8971673
  53.2298553   3.6841673   9.8251673  54.0068553   2.5941673  10.1261673
  53.9318553   3.3471673   9.9201673  50.9498553   8.0401673  17.5431673
  51.8208553   8.0041673  17.5071673  50.7308553   8.4601673  16.8111673
  51.0468553   8.0961673  17.4301673  40.7038553  13.8651673   8.7241673
  40.6248553  13.0551673   8.4081673  40.2598553  14.3521673   8.1521673
  40.6268553  13.8171673   8.5931673  38.2758553  16.1091673  12.3051673
  38.7688553  16.0531673  13.0231673  38.4638553  15.3761673  11.8701673
  38.3768553  15.9921673  12.3471673  28.8490113  54.0594913  80.4771313
  28.6040113  54.5474913  79.7971313  29.7120113  53.9864913  80.3771313
  28.9400113  54.1204913  80.3621313  28.6580113  60.9754913  85.1481313
  28.1340113  61.5714913  85.5111313  29.0550113  60.6074913  85.8321313
  28.6390113  61.0094913  85.3031313  18.5270113  65.1154913  80.6041313
  18.0860113  65.2334913  81.3471313  18.2440113  64.3404913  80.3191313
  18.4200113  65.0184913  80.6721313  18.2700113  58.9074913  77.1111313
  17.4920113  59.0694913  76.7511313  18.3090113  58.0364913  77.1331313
  18.1610113  58.8024913  77.0611313  21.4090113  64.1704913  75.7831313
  21.0170113  63.7994913  75.0971313  21.3290113  63.5724913  76.4121313
  21.3390113  64.0274913  75.7741313  31.3290113  62.0424913  81.8241313
  31.4090113  62.0464913  80.9551313  30.7450113  61.4104913  81.9731313
  31.2540113  61.9494913  81.7181313  21.0360113  65.8114913  79.6831313
  21.6440113  65.6414913  80.2861313  20.2850113  65.6714913  80.1041313
  21.0150113  65.7654913  79.8341313  25.3180113  55.1464913  79.6321313
  25.2480113  55.8234913  79.0861313  26.0590113  54.7584913  79.3831313
  25.4170113  55.1894913  79.5141313  18.4670113  67.8504913  86.8591313
  18.5960113  67.5704913  87.6751313  17.8570113  67.3094913  86.5501313
  18.3960113  67.7294913  86.9341313  19.9130113  62.3714913  81.0611313
  19.4510113  61.9794913  80.4341313  20.6130113  61.8584913  81.1531313
  19.9480113  62.2384913  80.9821313  24.4210113  57.9814913  86.4081313
  25.0990113  57.9994913  85.8591313  24.3760113  57.1454913  86.6531313
  24.5140113  57.8604913  86.3631313  21.9140113  60.4714913  81.0841313
  22.7310113  60.2844913  81.3271313  21.4370113  59.8574913  81.4801313
  21.9640113  60.3534913  81.1791313  26.1180113  66.4524913  83.6941313
  26.4660113  65.6534913  83.7241313  26.7830113  66.9564913  83.4391313
  26.2680113  66.4084913  83.6611313  26.1750113  65.9014913  79.9051313
  26.5060113  65.2574913  80.3911313  26.4150113  65.6904913  79.0941313
  26.2590113  65.7754913  79.8571313  22.5110113  55.5654913  80.3501313
  22.2150113  56.0664913  79.7001313  23.3780113  55.6434913  80.2931313
  22.5950113  55.6514913  80.2461313  32.7010113  52.9924913  90.3581313
  32.5430113  53.7614913  89.9761313  31.9290113  52.7724913  90.7021313
  32.5630113  53.0734913  90.3531313  25.4900113  54.7074913  82.5731313
  25.5630113  55.5674913  82.7021313  25.4520113  54.6324913  81.7051313
  25.4950113  54.8234913  82.4641313  30.1630113  57.6334913  74.8721313
  29.7130113  58.3144913  75.1791313  30.2770113  57.1294913  75.5751313
  30.1140113  57.6594913  75.0211313  18.3690113  60.1324913  84.0741313
  18.1130113  60.9634913  83.9991313  17.7050113  59.7494913  84.4911313
  18.2330113  60.1984913  84.1251313  24.1190113  67.6864913  79.4541313
  23.5400113  67.4114913  80.0461313  24.7430113  67.0774913  79.4791313
  24.1260113  67.5564913  79.5451313  21.3980113  54.9494913  84.5651313
  20.8770113  54.3214913  84.2571313  21.9890113  54.5124913  85.0361313
  21.4090113  54.7914913  84.5891313  35.5570113  57.6064913  81.1671313
  35.2110113  58.2844913  81.5931313  34.9210113  57.0084913  81.1831313
  35.4120113  57.6184913  81.2321313  20.6420113  66.9994913  83.4051313
  21.0650113  66.6434913  82.7311313  20.9660113  66.5774913  84.0971313
  20.7520113  66.8844913  83.4081313  27.6800113  59.2484913  80.7881313
  27.9670113  59.0164913  79.9981313  28.4120113  59.3274913  81.2571313
  27.8300113  59.2254913  80.7411313  28.4020113  59.5874913  75.9091313
  28.6830113  60.3754913  76.1581313  27.6260113  59.7524913  75.5461313
  28.3290113  59.7284913  75.8921313  35.2320113  55.9294913  86.5361313
  35.9890113  56.0014913  86.1081313  35.2950113  55.1564913  86.9351313
  35.3530113  55.8264913  86.5311313  17.7850113  57.2274913  90.4331313
  17.7810113  57.8144913  91.0791313  18.3790113  57.5394913  89.8761313
  17.8720113  57.3604913  90.4461313  30.7680113  55.6544913  76.7791313
  31.3080113  54.9724913  76.8551313  30.8300113  56.0524913  77.5531313
  30.8570113  55.6124913  76.9051313  18.7220113  56.8224913  79.3481313
  18.6080113  55.9584913  79.3791313  18.2470113  57.1164913  80.0181313
  18.6350113  56.7384913  79.4511313  28.0260113  58.0304913  78.0931313
  27.5180113  57.3684913  77.8391313  28.0780113  58.5344913  77.3831313
  27.9590113  58.0074913  77.9511313  28.0260113  54.9714913  77.9841313
  27.5710113  54.5694913  77.3581313  28.7990113  55.1264913  77.6091313
  28.0730113  54.9354913  77.8361313  26.6240113  57.3384913  82.5061313
  26.6980113  57.9064913  81.8481313  26.7450113  57.8304913  83.2161313
  26.6520113  57.4954913  82.5141313  31.8490113  67.1734913  80.9181313
  32.5500113  66.6914913  81.1071313  31.1890113  66.6044913  80.9631313
  31.8550113  67.0184913  80.9521313  21.2320113  53.1614913  80.8541313
  21.7680113  53.8494913  80.8441313  21.2350113  52.8874913  80.0261313
  21.3110113  53.2224913  80.7301313  24.1880113  63.5944913  84.8791313
  24.3600113  63.3844913  85.7081313  23.5330113  63.0604913  84.6631313
  24.1170113  63.4844913  84.9701313  30.4160113  57.5084913  88.3941313
  30.3210113  57.8274913  89.2001313  29.8230113  56.8694913  88.3561313
  30.3140113  57.4604913  88.5081313  24.9380113  63.5324913  87.4691313
  24.9910113  64.3794913  87.6711313  24.6530113  63.1624913  88.2061313
  24.9040113  63.6024913  87.6071313  31.1150113  64.2274913  86.5991313
  30.6010113  63.8154913  87.1701313  30.9890113  65.0714913  86.7801313
  31.0210113  64.2914913  86.7101313  31.6720113  53.4524913  81.2301313
  31.7210113  53.1344913  82.0411313  31.9950113  52.8084913  80.7371313
  31.7270113  53.3104913  81.2771313  34.1360113  57.6884913  89.5381313
  34.9080113  57.4634913  89.8751313  33.6610113  57.9054913  90.2381313
  34.1800113  57.6874913  89.6911313  21.6800113  56.9714913  82.5081313
  21.9520113  56.5414913  81.8001313  21.5040113  56.3354913  83.0791313
  21.6940113  56.8144913  82.4881313  34.3680113  64.6664913  76.7261313
  34.4870113  64.3794913  77.5411313  35.1750113  64.6874913  76.3961313
  34.5040113  64.6274913  76.7981313  21.5040113  64.3984913  82.0571313
  22.3550113  64.3184913  81.8841313  21.1470113  63.7164913  81.6451313
  21.5770113  64.2854913  81.9701313  19.8210113  58.0734913  85.5901313
  20.6640113  58.2934913  85.5471313  19.4320113  58.6464913  85.0591313
  19.8880113  58.1904913  85.5051313  32.2630113  61.2034913  76.3111313
  32.0430113  61.9344913  75.8891313  31.8150113  61.2544913  77.0581313
  32.1640113  61.3184913  76.3591313  23.8720113  64.4054913  80.2921313
  24.5850113  64.9004913  80.3821313  24.0940113  63.8384913  79.6661313
  24.0100113  64.3944913  80.2131313  36.4500113  56.0644913  75.7641313
  35.7880113  55.4964913  75.7871313  36.2570113  56.5764913  75.0841313
  36.3240113  56.0564913  75.6671313  18.0280113  66.0484913  83.6121313
  17.3610113  66.5364913  83.8881313  18.7080113  66.5934913  83.6411313
  18.0300113  66.2004913  83.6571313  36.7730113  60.4424913  88.3201313
  36.9880113  59.6424913  88.0441313  35.9230113  60.5024913  88.1311313
  36.6790113  60.3334913  88.2511313  18.0940113  62.7324913  78.7151313
  17.9090113  61.8934913  78.8671313  18.7530113  62.6964913  78.1451313
  18.1640113  62.6034913  78.6531313  34.4520113  55.6224913  78.0431313
  35.1980113  55.2154913  78.2421313  34.7150113  56.3374913  77.6181313
  34.6010113  55.6684913  78.0101313  18.2660113  66.8964913  78.2901313
  18.8180113  67.4654913  78.6541313  18.0340113  66.3814913  78.9551313
  18.3130113  66.9044913  78.4421313  22.4700113  65.8964913  85.3791313
  22.9370113  66.1854913  86.0571313  23.0420113  65.4184913  84.9251313
  22.6240113  65.8684913  85.4121313  30.9060113  57.9104913  83.1161313
  31.2500113  58.0624913  83.9031313  30.4530113  57.1724913  83.2291313
  30.8900113  57.8234913  83.2491313  18.0960113  65.3454913  75.9181313
  18.8520113  64.9134913  75.9761313  18.1110113  65.8774913  76.6091313
  18.2100113  65.3604913  76.0291313  19.0360113  63.5664913  83.9231313
  19.4670113  63.4374913  83.1761313  18.8310113  64.4144913  83.8971313
  19.0690113  63.6724913  83.8091313  25.3820113  57.1304913  77.5731313
  25.3800113  57.0134913  76.7081313  25.2010113  57.9784913  77.6651313
  25.3550113  57.2384913  77.4591313  23.1200113  67.0824913  82.2051313
  23.2460113  67.9254913  82.3921313  23.7880113  66.6834913  82.6011313
  23.2380113  67.1484913  82.2911313  21.7350113  59.9624913  77.2071313
  21.6070113  59.5144913  77.9451313  21.1530113  59.6204913  76.6551313
  21.6300113  59.8454913  77.2351313  21.9020113  61.7924913  83.8061313
  21.1210113  61.7334913  83.4231313  21.9740113  61.0404913  84.2431313
  21.7970113  61.6734913  83.8141313  22.3320113  61.5294913  87.2741313
  22.3570113  60.8544913  86.7231313  21.6860113  62.0254913  86.9621313
  22.2410113  61.5024913  87.1471313  32.2270113  59.2424913  85.6701313
  31.5650113  59.5704913  86.1331313  32.4140113  59.8764913  85.1011313
  32.1570113  59.3844913  85.6541313  28.8720113  55.1484913  89.0991313
  29.0210113  54.3234913  88.8561313  29.2510113  55.2034913  89.8831313
  28.9500113  55.0344913  89.1791313  30.4200113  57.2114913  79.1811313
  30.9100113  57.9284913  79.1041313  29.6300113  57.4724913  78.9181313
  30.3760113  57.3554913  79.1311313  31.7340113  65.0894913  91.0911313
  32.2180113  65.8074913  91.1891313  32.1280113  64.6624913  90.4401313
  31.8640113  65.1324913  91.0091313  27.0020113  58.6814913  84.9061313
  27.4820113  59.3804913  85.1141313  27.3750113  58.0344913  85.3571313
  27.1280113  58.6894913  85.0031313  29.1910113  61.8504913  77.1801313
  29.1830113  62.5724913  76.6901313  28.5520113  61.9854913  77.7571313
  29.0960113  61.9774913  77.1931313  34.1630113  65.7204913  81.1611313
  34.5190113  65.3704913  81.8761313  34.1550113  65.0594913  80.5911313
  34.2150113  65.5704913  81.1821313  30.2210113  65.6374913  84.4051313
  29.4240113  65.8614913  84.6791313  30.4790113  65.0434913  84.9901313
  30.1410113  65.5824913  84.5321313  23.7840113  54.1924913  76.8411313
  23.8810113  54.0854913  77.7021313  23.0760113  54.6984913  76.7761313
  23.6940113  54.2514913  76.9591313  33.4810113  63.6354913  89.2511313
  33.5360113  63.7604913  88.3891313  34.2340113  63.9554913  89.5531313
  33.6000113  63.7004913  89.1681313  20.9060113  62.4994913  78.0841313
  21.2300113  61.7204913  77.8621313  21.5520113  62.8674913  78.5391313
  21.0490113  62.4384913  78.1181313  29.2120113  63.4414913  88.8511313
  29.0570113  64.0514913  89.4551313  29.7460113  62.8834913  89.2571313
  29.2680113  63.4494913  89.0001313  17.9030113  54.1604913  79.0521313
  18.0320113  53.4524913  78.5601313  17.5360113  53.8424913  79.7771313
  17.8680113  54.0084913  79.0871313  27.5960113  61.8414913  79.5091313
  27.6550113  62.4914913  80.0881313  27.4070113  61.1454913  80.0001313
  27.5770113  61.8344913  79.6671313  32.8220113  66.1704913  85.3781313
  32.3430113  66.4684913  84.7121313  32.4660113  65.3944913  85.5561313
  32.6990113  66.0994913  85.3061313  22.0920113  56.3584913  76.0211313
  21.5810113  56.4114913  75.3151313  22.8760113  56.5984913  75.7251313
  22.1320113  56.4014913  75.8731313  26.8190113  63.8884913  83.9401313
  25.9720113  63.6944913  84.0211313  27.1430113  63.7234913  84.7331313
  26.7410113  63.8354913  84.0691313  20.6670113  63.5814913  86.2561313
  21.3890113  64.0694913  86.2191313  20.3970113  63.5514913  85.4271313
  20.7340113  63.6494913  86.1281313  23.8970113  58.7524913  82.9911313
  24.7430113  58.5624913  83.0891313  23.5270113  57.9754913  82.8531313
  23.9670113  58.6094913  82.9851313  18.7180113  60.0904913  79.6461313
  19.2070113  59.7984913  80.3071313  18.8470113  59.4974913  79.0191313
  18.8090113  59.9594913  79.6511313  33.7530113  63.1124913  86.4971313
  33.7460113  62.3364913  86.8951313  32.9120113  63.3464913  86.4901313
  33.6280113  63.0324913  86.5551313  23.2430113  61.5244913  75.1321313
  22.6330113  61.1194913  75.6061313  22.8570113  61.6424913  74.3591313
  23.0960113  61.4814913  75.0881313  20.0620113  64.6334913  90.5341313
  19.6410113  64.1154913  89.9731313  19.7100113  65.4194913  90.3911313
  19.9480113  64.6734913  90.4301313  35.0090113  63.1834913  83.9341313
  34.7230113  63.5844913  84.6541313  35.8690113  63.1214913  84.0611313
  35.0940113  63.2334913  84.0591313  24.6980113  59.9854913  77.8421313
  24.9700113  60.8114913  77.9091313  23.8350113  60.0604913  77.7461313
  24.6110113  60.1184913  77.8371313  18.1780113  55.9554913  84.3781313
  18.2220113  56.2994913  83.5771313  18.9330113  56.1924913  84.7451313
  18.2960113  56.0414913  84.3141313  32.7450113  67.4194913  76.4451313
  33.0790113  66.6134913  76.4801313  31.9900113  67.3474913  76.8751313
  32.6830113  67.2894913  76.5141313  33.2270113  59.2534913  82.1041313
  32.4820113  58.9304913  82.4221313  33.2290113  60.0794913  82.3841313
  33.1170113  59.3274913  82.1921313  35.6670113  65.2134913  89.8561313
  36.2950113  64.6644913  89.6001313  35.6060113  65.7784913  89.1941313
  35.7510113  65.2164913  89.7201313  30.1190113  65.2944913  75.8481313
  30.8030113  64.7804913  75.6791313  29.7020113  65.3404913  75.0831313
  30.1580113  65.2254913  75.7101313  24.8010113  66.4444913  87.1521313
  24.5030113  67.0364913  87.7191313  24.8560113  66.8864913  86.4031313
  24.7650113  66.5974913  87.1251313  22.7800113  65.3944913  90.5501313
  21.9740113  65.1044913  90.7171313  22.6910113  66.2624913  90.5561313
  22.6480113  65.4794913  90.5751313  32.1390113  55.5834913  89.5651313
  32.8830113  56.0354913  89.5021313  31.5730113  56.0534913  89.0961313
  32.1660113  55.7204913  89.4871313  27.3170113  62.8674913  86.6431313
  27.7930113  63.2414913  87.2711313  26.4940113  63.0014913  86.9021313
  27.2660113  62.9424913  86.7741313  24.0270113  58.4704913  89.3841313
  24.1880113  57.7264913  89.8111313  23.9820113  58.2214913  88.5491313
  24.0440113  58.3234913  89.3241313  33.4240113  53.5634913  87.2351313
  33.1440113  54.3884913  87.1911313  34.1400113  53.6164913  87.7311313
  33.4890113  53.6934913  87.3021313  25.7790113  54.2784913  89.2641313
  26.4840113  54.5984913  88.8621313  26.0200113  53.4714913  89.4911313
  25.9180113  54.2064913  89.2381313  34.8450113  59.8184913  76.0921313
  35.2230113  60.4954913  75.6921313  34.0030113  60.0424913  76.1231313
  34.7760113  59.9514913  76.0371313  26.3580113  63.2644913  75.1751313
  25.5530113  63.0874913  74.8901313  26.3250113  64.1154913  75.3671313
  26.2340113  63.3634913  75.1621313  22.2880113  59.3314913  85.3251313
  22.7280113  59.2284913  84.5791313  22.8330113  59.0184913  85.9301313
  22.4330113  59.2704913  85.3041313  29.9920113  59.9704913  87.2151313
  30.2940113  60.3904913  87.9181313  30.0280113  59.1304913  87.4471313
  30.0420113  59.9084913  87.3531313  32.5400113  59.4174913  79.4671313
  32.7470113  59.2164913  80.2911313  33.2960113  59.6854913  79.1251313
  32.6820113  59.4274913  79.5381313  25.8350113  54.3164913  85.3721313
  25.0090113  54.1674913  85.6091313  25.7950113  54.3514913  84.5011313
  25.7070113  54.2994913  85.2781313  33.5620113  55.5004913  80.9411313
  32.8480113  55.0294913  81.1121313  33.4000113  55.8414913  80.1551313
  33.4330113  55.4814913  80.8501313  34.0050113  63.4444913  79.3211313
  34.4810113  62.7154913  79.2731313  33.1840113  63.1584913  79.2451313
  33.9540113  63.2944913  79.3021313  27.4760113  65.3564913  90.1601313
  26.6810113  65.2924913  90.5111313  27.5470113  66.2034913  89.9651313
  27.3690113  65.4714913  90.1831313  21.4640113  57.4584913  78.6321313
  21.5900113  57.1294913  77.8341313  20.6520113  57.2094913  78.8311313
  21.3630113  57.3734913  78.5441313  30.2210113  64.6114913  81.6761313
  30.2970113  64.9524913  82.4751313  30.3900113  63.7644913  81.7971313
  30.2570113  64.5364913  81.8121313  27.7430113  63.8854913  81.2411313
  27.4450113  63.5704913  81.9981313  28.4380113  64.3584913  81.4761313
  27.8020113  63.9084913  81.3881313  36.1410113  60.6124913  91.0791313
  35.2860113  60.4904913  91.2051313  36.2940113  60.2174913  90.3161313
  36.0370113  60.5354913  90.9851313  30.6540113  61.2774913  89.6551313
  30.3990113  60.5584913  90.0771313  31.4750113  61.3934913  89.9251313
  30.7380113  61.1884913  89.7571313  28.3730113  65.9314913  86.7011313
  27.6790113  66.3334913  87.0441313  29.0500113  66.3644913  87.0401313
  28.3700113  66.0544913  86.8021313  21.4410113  59.4694913  89.0481313
  21.8160113  60.0884913  88.5611313  22.1150113  58.9954913  89.3331313
  21.5960113  59.4914913  89.0181313  19.2160113  57.9174913  88.3231313
  19.2930113  57.7484913  87.4701313  19.9620113  58.3234913  88.5201313
  19.3370113  57.9524913  88.2261313  34.7750113  60.5574913  78.7631313
  34.8780113  60.4994913  77.8991313  35.5160113  60.2254913  79.0811313
  34.9000113  60.5004913  78.6821313  21.7700113  55.3274913  90.7341313
  21.6890113  54.4834913  90.9401313  21.4560113  55.3714913  89.9211313
  21.7120113  55.2094913  90.6441313  33.8770113  60.7034913  88.1191313
  33.8750113  59.8404913  88.2431313  33.9440113  61.0274913  88.9261313
  33.8870113  60.6234913  88.2561313  18.6130113  63.1434913  88.5471313
  18.9330113  63.3624913  87.7661313  18.5130113  62.2784913  88.4921313
  18.6450113  63.0484913  88.4241313  20.0690113  59.0794913  75.1651313
  19.3970113  59.0934913  75.7211313  20.1640113  58.2314913  74.9811313
  19.9840113  58.9564913  75.2201313  28.7500113  55.6934913  82.7551313
  28.0500113  56.2114913  82.6991313  28.7880113  55.3134913  81.9711313
  28.6520113  55.7144913  82.6311313  24.0570113  67.7844913  76.2791313
  24.4980113  67.8644913  77.0271313  23.2520113  67.5684913  76.5371313
  24.0030113  67.7644913  76.4281313  32.3480113  56.2094913  85.5551313
  33.2030113  56.3084913  85.7001313  31.9790113  56.7624913  86.1201313
  32.4200113  56.3064913  85.6601313  23.3760113  62.4354913  89.9321313
  22.9800113  63.2094913  90.0071313  22.9700113  62.0624913  89.2561313
  23.2580113  62.4944913  89.8431313  32.6520113  61.4894913  84.0461313
  33.3180113  62.0304913  84.2061313  32.3070113  61.8004913  83.3071313
  32.6990113  61.6154913  83.9611313  21.3860113  66.8544913  76.8801313
  21.1420113  66.5474913  77.6601313  21.3530113  66.1514913  76.3641313
  21.3450113  66.7054913  76.9191313  24.2050113  65.0994913  75.6231313
  23.3870113  64.8314913  75.7631313  24.1770113  65.9514913  75.8081313
  24.0800113  65.1864913  75.6711313  23.8050113  55.4124913  87.3821313
  22.9410113  55.4964913  87.4621313  24.0250113  54.8984913  88.0511313
  23.7100113  55.3494913  87.4931313  35.8230113  54.0474913  88.7111313
  35.7710113  54.0034913  89.5811313  36.5100113  53.5444913  88.5211313
  35.9170113  53.9674913  88.8111313  27.9080113  56.1604913  85.7561313
  27.1710113  55.7064913  85.8691313  28.4790113  55.7584913  86.2791313
  27.8830113  56.0334913  85.8501313  30.6400113  67.0084913  87.5441313
  30.8460113  67.3094913  88.3361313  30.5790113  67.7304913  87.0591313
  30.6610113  67.1594913  87.5891313  25.4110113  60.4894913  90.9601313
  25.0890113  59.9134913  90.3901313  25.0520113  61.2444913  90.7141313
  25.3110113  60.5154913  90.8401313  26.2070113  53.7414913  75.5871313
  26.2850113  53.9884913  74.7541313  25.4640113  54.1184913  75.8451313
  26.1090113  53.8334913  75.5021313  35.4520113  65.6474913  87.0021313
  35.4200113  64.7854913  86.8671313  34.7590113  65.9494913  86.5681313
  35.3450113  65.5644913  86.9181313  21.0250113  55.4954913  88.0301313
  20.6820113  54.7284913  87.7961313  20.3300113  56.0194913  88.0941313
  20.8720113  55.4594913  88.0051313  30.0710113  54.3514913  85.0071313
  30.7410113  54.8954913  85.1341313  29.5680113  54.7754913  84.4341313
  30.0960113  54.4944913  84.9411313  29.4300113  60.1594913  82.5001313
  29.9810113  59.5524913  82.8001313  29.0050113  60.4224913  83.2151313
  29.4490113  60.1084913  82.6491313  19.6780113  58.8094913  81.9861313
  19.3100113  59.1114913  82.7171313  20.2120113  58.1804913  82.2701313
  19.7020113  58.7614913  82.1361313  19.3660113  67.2174913  89.4971313
  18.7920113  67.6334913  90.0061313  20.0990113  67.6824913  89.5921313
  19.3900113  67.3474913  89.5861313  31.4000113  61.9904913  79.0621313
  31.4680113  61.1404913  79.2431313  30.5770113  62.0764913  78.7841313
  31.2880113  61.8774913  79.0481313  25.3190113  62.8814913  78.0001313
  25.4190113  63.0204913  77.1451313  26.1370113  62.8214913  78.2961313
  25.4540113  62.8924913  77.9171313  30.5540113  67.2104913  77.8021313
  30.3030113  67.0824913  78.6281313  30.2370113  66.5154913  77.3811313
  30.4700113  67.0894913  77.8621313  35.1980113  58.8684913  85.9221313
  34.3650113  59.1184913  85.8501313  35.1420113  58.0284913  86.1511313
  35.0670113  58.7814913  85.9451313  24.4580113  55.8564913  91.1161313
  24.6920113  55.2804913  90.5031313  23.6160113  55.6754913  91.2571313
  24.3680113  55.7444913  91.0461313  27.4400113  65.4184913  77.2321313
  28.1570113  65.0714913  76.8761313  27.4060113  66.2184913  76.8841313
  27.5410113  65.4854913  77.1281313  28.8490113  54.0594913  61.4708903
  28.6040113  54.5474913  60.7908903  29.7120113  53.9864913  61.3708903
  28.9400113  54.1204913  61.3558903  28.6580113  60.9754913  66.1418903
  28.1340113  61.5714913  66.5048903  29.0550113  60.6074913  66.8258903
  28.6390113  61.0094913  66.2968903  18.5270113  65.1154913  61.5978903
  18.0860113  65.2334913  62.3408903  18.2440113  64.3404913  61.3128903
  18.4200113  65.0184913  61.6658903  18.2700113  58.9074913  58.1048903
  17.4920113  59.0694913  57.7448903  18.3090113  58.0364913  58.1268903
  18.1610113  58.8024913  58.0548903  21.4090113  64.1704913  56.7768903
  21.0170113  63.7994913  56.0908903  21.3290113  63.5724913  57.4058903
  21.3390113  64.0274913  56.7678903  31.3290113  62.0424913  62.8178903
  31.4090113  62.0464913  61.9488903  30.7450113  61.4104913  62.9668903
  31.2540113  61.9494913  62.7118903  21.0360113  65.8114913  60.6768903
  21.6440113  65.6414913  61.2798903  20.2850113  65.6714913  61.0978903
  21.0150113  65.7654913  60.8278903  25.3180113  55.1464913  60.6258903
  25.2480113  55.8234913  60.0798903  26.0590113  54.7584913  60.3768903
  25.4170113  55.1894913  60.5078903  18.4670113  67.8504913  67.8528903
  18.5960113  67.5704913  68.6688903  17.8570113  67.3094913  67.5438903
  18.3960113  67.7294913  67.9278903  25.0410113  65.3754913  72.9198903
  24.8050113  65.3724913  73.7598903  24.2930113  65.2274913  72.4958903
  24.8950113  65.3524913  72.9808903  19.9130113  62.3714913  62.0548903
  19.4510113  61.9794913  61.4278903  20.6130113  61.8584913  62.1468903
  19.9480113  62.2384913  61.9758903  24.4210113  57.9814913  67.4018903
  25.0990113  57.9994913  66.8528903  24.3760113  57.1454913  67.6468903
  24.5140113  57.8604913  67.3568903  21.9140113  60.4714913  62.0778903
  22.7310113  60.2844913  62.3208903  21.4370113  59.8574913  62.4738903
  21.9640113  60.3534913  62.1728903  26.1180113  66.4524913  64.6878903
  26.4660113  65.6534913  64.7178903  26.7830113  66.9564913  64.4328903
  26.2680113  66.4084913  64.6548903  26.1750113  65.9014913  60.8988903
  26.5060113  65.2574913  61.3848903  26.4150113  65.6904913  60.0878903
  26.2590113  65.7754913  60.8508903  28.1430113  60.0324913  72.2378903
  27.2950113  59.9334913  72.0598903  28.1720113  60.7774913  72.6918903
  28.0220113  60.1284913  72.2788903  22.5110113  55.5654913  61.3438903
  22.2150113  56.0664913  60.6938903  23.3780113  55.6434913  61.2868903
  22.5950113  55.6514913  61.2398903  32.7010113  52.9924913  71.3518903
  32.5430113  53.7614913  70.9698903  31.9290113  52.7724913  71.6958903
  32.5630113  53.0734913  71.3468903  25.4900113  54.7074913  63.5668903
  25.5630113  55.5674913  63.6958903  25.4520113  54.6324913  62.6988903
  25.4950113  54.8234913  63.4578903  30.1630113  57.6334913  55.8658903
  29.7130113  58.3144913  56.1728903  30.2770113  57.1294913  56.5688903
  30.1140113  57.6594913  56.0148903  18.3690113  60.1324913  65.0678903
  18.1130113  60.9634913  64.9928903  17.7050113  59.7494913  65.4848903
  18.2330113  60.1984913  65.1188903  24.1190113  67.6864913  60.4478903
  23.5400113  67.4114913  61.0398903  24.7430113  67.0774913  60.4728903
  24.1260113  67.5564913  60.5388903  21.3980113  54.9494913  65.5588903
  20.8770113  54.3214913  65.2508903  21.9890113  54.5124913  66.0298903
  21.4090113  54.7914913  65.5828903  24.7040113  57.0824913  74.8568903
  24.8210113  56.6284913  74.1208903  24.9920113  57.8804913  74.6538903
  24.7640113  57.1334913  74.7178903  35.5570113  57.6064913  62.1608903
  35.2110113  58.2844913  62.5868903  34.9210113  57.0084913  62.1768903
  35.4120113  57.6184913  62.2258903  20.4370113  56.6794913  73.8408903
  19.6590113  56.2894913  73.7688903  20.9280113  56.2674913  73.2498903
  20.3940113  56.5604913  73.7428903  20.6420113  66.9994913  64.3988903
  21.0650113  66.6434913  63.7248903  20.9660113  66.5774913  65.0908903
  20.7520113  66.8844913  64.4018903  27.0860113  54.3224913  73.0088903
  27.2640113  53.5134913  72.7338903  26.9430113  54.7634913  72.2698903
  27.0910113  54.2684913  72.8588903  27.6800113  59.2484913  61.7818903
  27.9670113  59.0164913  60.9918903  28.4120113  59.3274913  62.2508903
  27.8300113  59.2254913  61.7348903  28.4020113  59.5874913  56.9028903
  28.6830113  60.3754913  57.1518903  27.6260113  59.7524913  56.5398903
  28.3290113  59.7284913  56.8858903  35.2320113  55.9294913  67.5298903
  35.9890113  56.0014913  67.1018903  35.2950113  55.1564913  67.9288903
  35.3530113  55.8264913  67.5248903  17.7850113  57.2274913  71.4268903
  17.7810113  57.8144913  72.0728903  18.3790113  57.5394913  70.8698903
  17.8720113  57.3604913  71.4398903  30.1230113  67.5614913  71.9688903
  30.0890113  67.9434913  72.7528903  30.9770113  67.5194913  71.7978903
  30.2440113  67.6114913  72.0598903  30.7680113  55.6544913  57.7728903
  31.3080113  54.9724913  57.8488903  30.8300113  56.0524913  58.5468903
  30.8570113  55.6124913  57.8988903  18.7220113  56.8224913  60.3418903
  18.6080113  55.9584913  60.3728903  18.2470113  57.1164913  61.0118903
  18.6350113  56.7384913  60.4448903  28.0260113  58.0304913  59.0868903
  27.5180113  57.3684913  58.8328903  28.0780113  58.5344913  58.3768903
  27.9590113  58.0074913  58.9448903  28.0260113  54.9714913  58.9778903
  27.5710113  54.5694913  58.3518903  28.7990113  55.1264913  58.6028903
  28.0730113  54.9354913  58.8298903  26.6240113  57.3384913  63.4998903
  26.6980113  57.9064913  62.8418903  26.7450113  57.8304913  64.2098903
  26.6520113  57.4954913  63.5078903  31.8490113  67.1734913  61.9118903
  32.5500113  66.6914913  62.1008903  31.1890113  66.6044913  61.9568903
  31.8550113  67.0184913  61.9458903  21.2320113  53.1614913  61.8478903
  21.7680113  53.8494913  61.8378903  21.2350113  52.8874913  61.0198903
  21.3110113  53.2224913  61.7238903  24.1880113  63.5944913  65.8728903
  24.3600113  63.3844913  66.7018903  23.5330113  63.0604913  65.6568903
  24.1170113  63.4844913  65.9638903  30.4160113  57.5084913  69.3878903
  30.3210113  57.8274913  70.1938903  29.8230113  56.8694913  69.3498903
  30.3140113  57.4604913  69.5018903  24.9380113  63.5324913  68.4628903
  24.9910113  64.3794913  68.6648903  24.6530113  63.1624913  69.1998903
  24.9040113  63.6024913  68.6008903  31.1150113  64.2274913  67.5928903
  30.6010113  63.8154913  68.1638903  30.9890113  65.0714913  67.7738903
  31.0210113  64.2914913  67.7038903  31.6720113  53.4524913  62.2238903
  31.7210113  53.1344913  63.0348903  31.9950113  52.8084913  61.7308903
  31.7270113  53.3104913  62.2708903  34.1360113  57.6884913  70.5318903
  34.9080113  57.4634913  70.8688903  33.6610113  57.9054913  71.2318903
  34.1800113  57.6874913  70.6848903  21.6800113  56.9714913  63.5018903
  21.9520113  56.5414913  62.7938903  21.5040113  56.3354913  64.0728903
  21.6940113  56.8144913  63.4818903  34.3680113  64.6664913  57.7198903
  34.4870113  64.3794913  58.5348903  35.1750113  64.6874913  57.3898903
  34.5040113  64.6274913  57.7918903  21.5040113  64.3984913  63.0508903
  22.3550113  64.3184913  62.8778903  21.1470113  63.7164913  62.6388903
  21.5770113  64.2854913  62.9638903  19.8210113  58.0734913  66.5838903
  20.6640113  58.2934913  66.5408903  19.4320113  58.6464913  66.0528903
  19.8880113  58.1904913  66.4988903  32.2630113  61.2034913  57.3048903
  32.0430113  61.9344913  56.8828903  31.8150113  61.2544913  58.0518903
  32.1640113  61.3184913  57.3528903  23.8720113  64.4054913  61.2858903
  24.5850113  64.9004913  61.3758903  24.0940113  63.8384913  60.6598903
  24.0100113  64.3944913  61.2068903  36.4500113  56.0644913  56.7578903
  35.7880113  55.4964913  56.7808903  36.2570113  56.5764913  56.0778903
  36.3240113  56.0564913  56.6608903  18.0280113  66.0484913  64.6058903
  17.3610113  66.5364913  64.8818903  18.7080113  66.5934913  64.6348903
  18.0300113  66.2004913  64.6508903  25.6750113  59.7584913  74.7018903
  25.1910113  60.3354913  75.1438903  25.6470113  60.0534913  73.8808903
  25.5990113  59.8874913  74.6458903  36.7730113  60.4424913  69.3138903
  36.9880113  59.6424913  69.0378903  35.9230113  60.5024913  69.1248903
  36.6790113  60.3334913  69.2448903  18.0940113  62.7324913  59.7088903
  17.9090113  61.8934913  59.8608903  18.7530113  62.6964913  59.1388903
  18.1640113  62.6034913  59.6468903  34.4520113  55.6224913  59.0368903
  35.1980113  55.2154913  59.2358903  34.7150113  56.3374913  58.6118903
  34.6010113  55.6684913  59.0038903  18.2660113  66.8964913  59.2838903
  18.8180113  67.4654913  59.6478903  18.0340113  66.3814913  59.9488903
  18.3130113  66.9044913  59.4358903  22.4700113  65.8964913  66.3728903
  22.9370113  66.1854913  67.0508903  23.0420113  65.4184913  65.9188903
  22.6240113  65.8684913  66.4058903  30.9060113  57.9104913  64.1098903
  31.2500113  58.0624913  64.8968903  30.4530113  57.1724913  64.2228903
  30.8900113  57.8234913  64.2428903  18.0960113  65.3454913  56.9118903
  18.8520113  64.9134913  56.9698903  18.1110113  65.8774913  57.6028903
  18.2100113  65.3604913  57.0228903  19.0360113  63.5664913  64.9168903
  19.4670113  63.4374913  64.1698903  18.8310113  64.4144913  64.8908903
  19.0690113  63.6724913  64.8028903  25.3820113  57.1304913  58.5668903
  25.3800113  57.0134913  57.7018903  25.2010113  57.9784913  58.6588903
  25.3550113  57.2384913  58.4528903  23.1200113  67.0824913  63.1988903
  23.2460113  67.9254913  63.3858903  23.7880113  66.6834913  63.5948903
  23.2380113  67.1484913  63.2848903  21.2500113  60.5654913  73.0608903
  20.7140113  60.0594913  73.5288903  21.2700113  60.1754913  72.2808903
  21.1730113  60.4324913  73.0148903  21.7350113  59.9624913  58.2008903
  21.6070113  59.5144913  58.9388903  21.1530113  59.6204913  57.6488903
  21.6300113  59.8454913  58.2288903  21.9020113  61.7924913  64.7998903
  21.1210113  61.7334913  64.4168903  21.9740113  61.0404913  65.2368903
  21.7970113  61.6734913  64.8078903  22.3320113  61.5294913  68.2678903
  22.3570113  60.8544913  67.7168903  21.6860113  62.0254913  67.9558903
  22.2410113  61.5024913  68.1408903  32.2270113  59.2424913  66.6638903
  31.5650113  59.5704913  67.1268903  32.4140113  59.8764913  66.0948903
  32.1570113  59.3844913  66.6478903  28.8720113  55.1484913  70.0928903
  29.0210113  54.3234913  69.8498903  29.2510113  55.2034913  70.8768903
  28.9500113  55.0344913  70.1728903  30.4200113  57.2114913  60.1748903
  30.9100113  57.9284913  60.0978903  29.6300113  57.4724913  59.9118903
  30.3760113  57.3554913  60.1248903  20.1310113  62.8844913  73.8268903
  20.0940113  63.3854913  73.1128903  20.4620113  62.1324913  73.5318903
  20.1740113  62.8464913  73.6778903  31.7340113  65.0894913  72.0848903
  32.2180113  65.8074913  72.1828903  32.1280113  64.6624913  71.4338903
  31.8640113  65.1324913  72.0028903  26.0300113  67.9344913  73.2618903
  26.3840113  67.7564913  74.0388903  25.5940113  67.2054913  73.0628903
  26.0180113  67.8004913  73.3478903  27.0020113  58.6814913  65.8998903
  27.4820113  59.3804913  66.1078903  27.3750113  58.0344913  66.3508903
  27.1280113  58.6894913  65.9968903  29.1910113  61.8504913  58.1738903
  29.1830113  62.5724913  57.6838903  28.5520113  61.9854913  58.7508903
  29.0960113  61.9774913  58.1868903  34.1630113  65.7204913  62.1548903
  34.5190113  65.3704913  62.8698903  34.1550113  65.0594913  61.5848903
  34.2150113  65.5704913  62.1758903  30.2210113  65.6374913  65.3988903
  29.4240113  65.8614913  65.6728903  30.4790113  65.0434913  65.9838903
  30.1410113  65.5824913  65.5258903  23.7840113  54.1924913  57.8348903
  23.8810113  54.0854913  58.6958903  23.0760113  54.6984913  57.7698903
  23.6940113  54.2514913  57.9528903  33.4810113  63.6354913  70.2448903
  33.5360113  63.7604913  69.3828903  34.2340113  63.9554913  70.5468903
  33.6000113  63.7004913  70.1618903  34.5130113  53.9334913  73.2318903
  33.8760113  53.5334913  72.7898903  34.5390113  53.5024913  73.9898903
  34.4230113  53.8114913  73.2778903  20.9060113  62.4994913  59.0778903
  21.2300113  61.7204913  58.8558903  21.5520113  62.8674913  59.5328903
  21.0490113  62.4384913  59.1118903  29.2120113  63.4414913  69.8448903
  29.0570113  64.0514913  70.4488903  29.7460113  62.8834913  70.2508903
  29.2680113  63.4494913  69.9938903  17.9030113  54.1604913  60.0458903
  18.0320113  53.4524913  59.5538903  17.5360113  53.8424913  60.7708903
  17.8680113  54.0084913  60.0808903  27.5960113  61.8414913  60.5028903
  27.6550113  62.4914913  61.0818903  27.4070113  61.1454913  60.9938903
  27.5770113  61.8344913  60.6608903  32.8220113  66.1704913  66.3718903
  32.3430113  66.4684913  65.7058903  32.4660113  65.3944913  66.5498903
  32.6990113  66.0994913  66.2998903  22.0920113  56.3584913  57.0148903
  21.5810113  56.4114913  56.3088903  22.8760113  56.5984913  56.7188903
  22.1320113  56.4014913  56.8668903  26.8190113  63.8884913  64.9338903
  25.9720113  63.6944913  65.0148903  27.1430113  63.7234913  65.7268903
  26.7410113  63.8354913  65.0628903  20.6670113  63.5814913  67.2498903
  21.3890113  64.0694913  67.2128903  20.3970113  63.5514913  66.4208903
  20.7340113  63.6494913  67.1218903  23.8970113  58.7524913  63.9848903
  24.7430113  58.5624913  64.0828903  23.5270113  57.9754913  63.8468903
  23.9670113  58.6094913  63.9788903  18.7180113  60.0904913  60.6398903
  19.2070113  59.7984913  61.3008903  18.8470113  59.4974913  60.0128903
  18.8090113  59.9594913  60.6448903  33.7530113  63.1124913  67.4908903
  33.7460113  62.3364913  67.8888903  32.9120113  63.3464913  67.4838903
  33.6280113  63.0324913  67.5488903  23.2430113  61.5244913  56.1258903
  22.6330113  61.1194913  56.5998903  22.8570113  61.6424913  55.3528903
  23.0960113  61.4814913  56.0818903  20.0620113  64.6334913  71.5278903
  19.6410113  64.1154913  70.9668903  19.7100113  65.4194913  71.3848903
  19.9480113  64.6734913  71.4238903  35.0090113  63.1834913  64.9278903
  34.7230113  63.5844913  65.6478903  35.8690113  63.1214913  65.0548903
  35.0940113  63.2334913  65.0528903  24.6980113  59.9854913  58.8358903
  24.9700113  60.8114913  58.9028903  23.8350113  60.0604913  58.7398903
  24.6110113  60.1184913  58.8308903  32.6710113  57.1074913  73.4678903
  32.1460113  57.5664913  73.9918903  32.3100113  56.3124913  73.4618903
  32.5400113  57.0574913  73.5438903  18.1780113  55.9554913  65.3718903
  18.2220113  56.2994913  64.5708903  18.9330113  56.1924913  65.7388903
  18.2960113  56.0414913  65.3078903  31.1630113  60.6764913  73.5438903
  31.2360113  60.7804913  74.4068903  30.5290113  61.2344913  73.3228903
  31.0800113  60.7744913  73.6388903  33.4310113  60.9954913  71.9088903
  33.7500113  61.7814913  72.1118903  33.0610113  60.7254913  72.6518903
  33.4240113  61.0714913  72.0488903  32.7450113  67.4194913  57.4388903
  33.0790113  66.6134913  57.4738903  31.9900113  67.3474913  57.8688903
  32.6830113  67.2894913  57.5078903  33.2270113  59.2534913  63.0978903
  32.4820113  58.9304913  63.4158903  33.2290113  60.0794913  63.3778903
  33.1170113  59.3274913  63.1858903  36.1290113  61.5374913  74.6438903
  36.0770113  61.1964913  73.8428903  36.8660113  62.0044913  74.6218903
  36.2300113  61.5564913  74.5218903  35.6670113  65.2134913  70.8498903
  36.2950113  64.6644913  70.5938903  35.6060113  65.7784913  70.1878903
  35.7510113  65.2164913  70.7138903  30.1190113  65.2944913  56.8418903
  30.8030113  64.7804913  56.6728903  29.7020113  65.3404913  56.0768903
  30.1580113  65.2254913  56.7038903  24.8010113  66.4444913  68.1458903
  24.5030113  67.0364913  68.7128903  24.8560113  66.8864913  67.3968903
  24.7650113  66.5974913  68.1188903  22.7800113  65.3944913  71.5438903
  21.9740113  65.1044913  71.7108903  22.6910113  66.2624913  71.5498903
  22.6480113  65.4794913  71.5688903  32.1390113  55.5834913  70.5588903
  32.8830113  56.0354913  70.4958903  31.5730113  56.0534913  70.0898903
  32.1660113  55.7204913  70.4808903  27.3170113  62.8674913  67.6368903
  27.7930113  63.2414913  68.2648903  26.4940113  63.0014913  67.8958903
  27.2660113  62.9424913  67.7678903  24.0270113  58.4704913  70.3778903
  24.1880113  57.7264913  70.8048903  23.9820113  58.2214913  69.5428903
  24.0440113  58.3234913  70.3178903  33.4240113  53.5634913  68.2288903
  33.1440113  54.3884913  68.1848903  34.1400113  53.6164913  68.7248903
  33.4890113  53.6934913  68.2958903  25.7790113  54.2784913  70.2578903
  26.4840113  54.5984913  69.8558903  26.0200113  53.4714913  70.4848903
  25.9180113  54.2064913  70.2318903  29.0730113  65.1224913  73.2428903
  29.8300113  65.4084913  72.9168903  28.5260113  65.1744913  72.5648903
  29.1040113  65.1724913  73.0938903  34.8450113  59.8184913  57.0858903
  35.2230113  60.4954913  56.6858903  34.0030113  60.0424913  57.1168903
  34.7760113  59.9514913  57.0308903  26.3580113  63.2644913  56.1688903
  25.5530113  63.0874913  55.8838903  26.3250113  64.1154913  56.3608903
  26.2340113  63.3634913  56.1558903  22.2880113  59.3314913  66.3188903
  22.7280113  59.2284913  65.5728903  22.8330113  59.0184913  66.9238903
  22.4330113  59.2704913  66.2978903  30.3040113  58.4334913  71.9108903
  29.6560113  58.9034913  72.2588903  30.8690113  58.3444913  72.5698903
  30.2920113  58.4894913  72.0598903  29.9920113  59.9704913  68.2088903
  30.2940113  60.3904913  68.9118903  30.0280113  59.1304913  68.4408903
  30.0420113  59.9084913  68.3468903  32.5400113  59.4174913  60.4608903
  32.7470113  59.2164913  61.2848903  33.2960113  59.6854913  60.1188903
  32.6820113  59.4274913  60.5318903  25.8350113  54.3164913  66.3658903
  25.0090113  54.1674913  66.6028903  25.7950113  54.3514913  65.4948903
  25.7070113  54.2994913  66.2718903  33.5620113  55.5004913  61.9348903
  32.8480113  55.0294913  62.1058903  33.4000113  55.8414913  61.1488903
  33.4330113  55.4814913  61.8438903  34.0050113  63.4444913  60.3148903
  34.4810113  62.7154913  60.2668903  33.1840113  63.1584913  60.2388903
  33.9540113  63.2944913  60.2958903  27.4760113  65.3564913  71.1538903
  26.6810113  65.2924913  71.5048903  27.5470113  66.2034913  70.9588903
  27.3690113  65.4714913  71.1768903  18.4000113  54.7144913  72.4008903
  18.2600113  55.5094913  72.0698903  17.6140113  54.4714913  72.6898903
  18.2630113  54.7964913  72.3948903  21.4640113  57.4584913  59.6258903
  21.5900113  57.1294913  58.8278903  20.6520113  57.2094913  59.8248903
  21.3630113  57.3734913  59.5378903  30.2210113  64.6114913  62.6698903
  30.2970113  64.9524913  63.4688903  30.3900113  63.7644913  62.7908903
  30.2570113  64.5364913  62.8058903  27.7430113  63.8854913  62.2348903
  27.4450113  63.5704913  62.9918903  28.4380113  64.3584913  62.4698903
  27.8020113  63.9084913  62.3818903  36.1410113  60.6124913  72.0728903
  35.2860113  60.4904913  72.1988903  36.2940113  60.2174913  71.3098903
  36.0370113  60.5354913  71.9788903  30.6540113  61.2774913  70.6488903
  30.3990113  60.5584913  71.0708903  31.4750113  61.3934913  70.9188903
  30.7380113  61.1884913  70.7508903  28.5880113  62.4674913  73.8358903
  28.9110113  63.1534913  73.4038903  27.8840113  62.7904913  74.2378903
  28.5310113  62.6164913  73.8308903  28.3730113  65.9314913  67.6948903
  27.6790113  66.3334913  68.0378903  29.0500113  66.3644913  68.0338903
  28.3700113  66.0544913  67.7958903  21.4410113  59.4694913  70.0418903
  21.8160113  60.0884913  69.5548903  22.1150113  58.9954913  70.3268903
  21.5960113  59.4914913  70.0118903  19.2160113  57.9174913  69.3168903
  19.2930113  57.7484913  68.4638903  19.9620113  58.3234913  69.5138903
  19.3370113  57.9524913  69.2198903  34.7750113  60.5574913  59.7568903
  34.8780113  60.4994913  58.8928903  35.5160113  60.2254913  60.0748903
  34.9000113  60.5004913  59.6758903  21.7700113  55.3274913  71.7278903
  21.6890113  54.4834913  71.9338903  21.4560113  55.3714913  70.9148903
  21.7120113  55.2094913  71.6378903  33.8770113  60.7034913  69.1128903
  33.8750113  59.8404913  69.2368903  33.9440113  61.0274913  69.9198903
  33.8870113  60.6234913  69.2498903  18.6130113  63.1434913  69.5408903
  18.9330113  63.3624913  68.7598903  18.5130113  62.2784913  69.4858903
  18.6450113  63.0484913  69.4178903  20.0690113  59.0794913  56.1588903
  19.3970113  59.0934913  56.7148903  20.1640113  58.2314913  55.9748903
  19.9840113  58.9564913  56.2138903  29.7560113  55.5034913  72.8948903
  29.8480113  56.2154913  73.3888903  29.1190113  55.0584913  73.2918903
  29.6750113  55.5424913  73.0268903  28.7500113  55.6934913  63.7488903
  28.0500113  56.2114913  63.6928903  28.7880113  55.3134913  62.9648903
  28.6520113  55.7144913  63.6248903  24.0570113  67.7844913  57.2728903
  24.4980113  67.8644913  58.0208903  23.2520113  67.5684913  57.5308903
  24.0030113  67.7644913  57.4218903  32.3480113  56.2094913  66.5488903
  33.2030113  56.3084913  66.6938903  31.9790113  56.7624913  67.1138903
  32.4200113  56.3064913  66.6538903  23.3760113  62.4354913  70.9258903
  22.9800113  63.2094913  71.0008903  22.9700113  62.0624913  70.2498903
  23.2580113  62.4944913  70.8368903  32.6520113  61.4894913  65.0398903
  33.3180113  62.0304913  65.1998903  32.3070113  61.8004913  64.3008903
  32.6990113  61.6154913  64.9548903  21.3860113  66.8544913  57.8738903
  21.1420113  66.5474913  58.6538903  21.3530113  66.1514913  57.3578903
  21.3450113  66.7054913  57.9128903  24.2050113  65.0994913  56.6168903
  23.3870113  64.8314913  56.7568903  24.1770113  65.9514913  56.8018903
  24.0800113  65.1864913  56.6648903  23.8050113  55.4124913  68.3758903
  22.9410113  55.4964913  68.4558903  24.0250113  54.8984913  69.0448903
  23.7100113  55.3494913  68.4868903  35.8230113  54.0474913  69.7048903
  35.7710113  54.0034913  70.5748903  36.5100113  53.5444913  69.5148903
  35.9170113  53.9674913  69.8048903  27.9080113  56.1604913  66.7498903
  27.1710113  55.7064913  66.8628903  28.4790113  55.7584913  67.2728903
  27.8830113  56.0334913  66.8438903  30.6400113  67.0084913  68.5378903
  30.8460113  67.3094913  69.3298903  30.5790113  67.7304913  68.0528903
  30.6610113  67.1594913  68.5828903  25.4110113  60.4894913  71.9538903
  25.0890113  59.9134913  71.3838903  25.0520113  61.2444913  71.7078903
  25.3110113  60.5154913  71.8338903  26.2070113  53.7414913  56.5808903
  26.2850113  53.9884913  55.7478903  25.4640113  54.1184913  56.8388903
  26.1090113  53.8334913  56.4958903  35.4520113  65.6474913  67.9958903
  35.4200113  64.7854913  67.8608903  34.7590113  65.9494913  67.5618903
  35.3450113  65.5644913  67.9118903  21.0250113  55.4954913  69.0238903
  20.6820113  54.7284913  68.7898903  20.3300113  56.0194913  69.0878903
  20.8720113  55.4594913  68.9988903  30.0710113  54.3514913  66.0008903
  30.7410113  54.8954913  66.1278903  29.5680113  54.7754913  65.4278903
  30.0960113  54.4944913  65.9348903  29.4300113  60.1594913  63.4938903
  29.9810113  59.5524913  63.7938903  29.0050113  60.4224913  64.2088903
  29.4490113  60.1084913  63.6428903  19.6780113  58.8094913  62.9798903
  19.3100113  59.1114913  63.7108903  20.2120113  58.1804913  63.2638903
  19.7020113  58.7614913  63.1298903  19.3660113  67.2174913  70.4908903
  18.7920113  67.6334913  70.9998903  20.0990113  67.6824913  70.5858903
  19.3900113  67.3474913  70.5798903  31.4000113  61.9904913  60.0558903
  31.4680113  61.1404913  60.2368903  30.5770113  62.0764913  59.7778903
  31.2880113  61.8774913  60.0418903  25.3190113  62.8814913  58.9938903
  25.4190113  63.0204913  58.1388903  26.1370113  62.8214913  59.2898903
  25.4540113  62.8924913  58.9108903  34.6740113  63.3634913  73.2068903
  35.3080113  63.1934913  73.7808903  35.0910113  63.7664913  72.5548903
  34.8290113  63.3984913  73.1958903  30.5540113  67.2104913  58.7958903
  30.3030113  67.0824913  59.6218903  30.2370113  66.5154913  58.3748903
  30.4700113  67.0894913  58.8558903  35.2990113  57.9274913  73.9448903
  35.1030113  58.5714913  74.4998903  34.5770113  57.4374913  73.9368903
  35.1640113  57.9504913  74.0258903  35.1980113  58.8684913  66.9158903
  34.3650113  59.1184913  66.8438903  35.1420113  58.0284913  67.1448903
  35.0670113  58.7814913  66.9388903  24.4580113  55.8564913  72.1098903
  24.6920113  55.2804913  71.4968903  23.6160113  55.6754913  72.2508903
  24.3680113  55.7444913  72.0398903  32.0850113  63.4744913  74.5618903
  32.9560113  63.4384913  74.5258903  31.8660113  63.8944913  73.8298903
  32.1820113  63.5304913  74.4488903  27.4400113  65.4184913  58.2258903
  28.1570113  65.0714913  57.8698903  27.4060113  66.2184913  57.8778903
  27.5410113  65.4854913  58.1218903  28.8490113  54.0594913  42.4646493
  28.6040113  54.5474913  41.7846493  29.7120113  53.9864913  42.3646493
  28.9400113  54.1204913  42.3496493  28.6580113  60.9754913  47.1356493
  28.1340113  61.5714913  47.4986493  29.0550113  60.6074913  47.8196493
  28.6390113  61.0094913  47.2906493  18.5270113  65.1154913  42.5916493
  18.0860113  65.2334913  43.3346493  18.2440113  64.3404913  42.3066493
  18.4200113  65.0184913  42.6596493  18.2700113  58.9074913  39.0986493
  17.4920113  59.0694913  38.7386493  18.3090113  58.0364913  39.1206493
  18.1610113  58.8024913  39.0486493  21.4090113  64.1704913  37.7706493
  21.0170113  63.7994913  37.0846493  21.3290113  63.5724913  38.3996493
  21.3390113  64.0274913  37.7616493  31.3290113  62.0424913  43.8116493
  31.4090113  62.0464913  42.9426493  30.7450113  61.4104913  43.9606493
  31.2540113  61.9494913  43.7056493  21.0360113  65.8114913  41.6706493
  21.6440113  65.6414913  42.2736493  20.2850113  65.6714913  42.0916493
  21.0150113  65.7654913  41.8216493  25.3180113  55.1464913  41.6196493
  25.2480113  55.8234913  41.0736493  26.0590113  54.7584913  41.3706493
  25.4170113  55.1894913  41.5016493  18.4670113  67.8504913  48.8466493
  18.5960113  67.5704913  49.6626493  17.8570113  67.3094913  48.5376493
  18.3960113  67.7294913  48.9216493  25.0410113  65.3754913  53.9136493
  24.8050113  65.3724913  54.7536493  24.2930113  65.2274913  53.4896493
  24.8950113  65.3524913  53.9746493  19.9130113  62.3714913  43.0486493
  19.4510113  61.9794913  42.4216493  20.6130113  61.8584913  43.1406493
  19.9480113  62.2384913  42.9696493  24.4210113  57.9814913  48.3956493
  25.0990113  57.9994913  47.8466493  24.3760113  57.1454913  48.6406493
  24.5140113  57.8604913  48.3506493  21.9140113  60.4714913  43.0716493
  22.7310113  60.2844913  43.3146493  21.4370113  59.8574913  43.4676493
  21.9640113  60.3534913  43.1666493  26.1180113  66.4524913  45.6816493
  26.4660113  65.6534913  45.7116493  26.7830113  66.9564913  45.4266493
  26.2680113  66.4084913  45.6486493  26.1750113  65.9014913  41.8926493
  26.5060113  65.2574913  42.3786493  26.4150113  65.6904913  41.0816493
  26.2590113  65.7754913  41.8446493  28.1430113  60.0324913  53.2316493
  27.2950113  59.9334913  53.0536493  28.1720113  60.7774913  53.6856493
  28.0220113  60.1284913  53.2726493  22.5110113  55.5654913  42.3376493
  22.2150113  56.0664913  41.6876493  23.3780113  55.6434913  42.2806493
  22.5950113  55.6514913  42.2336493  32.7010113  52.9924913  52.3456493
  32.5430113  53.7614913  51.9636493  31.9290113  52.7724913  52.6896493
  32.5630113  53.0734913  52.3406493  25.4900113  54.7074913  44.5606493
  25.5630113  55.5674913  44.6896493  25.4520113  54.6324913  43.6926493
  25.4950113  54.8234913  44.4516493  30.1630113  57.6334913  36.8596493
  29.7130113  58.3144913  37.1666493  30.2770113  57.1294913  37.5626493
  30.1140113  57.6594913  37.0086493  18.3690113  60.1324913  46.0616493
  18.1130113  60.9634913  45.9866493  17.7050113  59.7494913  46.4786493
  18.2330113  60.1984913  46.1126493  24.1190113  67.6864913  41.4416493
  23.5400113  67.4114913  42.0336493  24.7430113  67.0774913  41.4666493
  24.1260113  67.5564913  41.5326493  21.3980113  54.9494913  46.5526493
  20.8770113  54.3214913  46.2446493  21.9890113  54.5124913  47.0236493
  21.4090113  54.7914913  46.5766493  24.7040113  57.0824913  55.8506493
  24.8210113  56.6284913  55.1146493  24.9920113  57.8804913  55.6476493
  24.7640113  57.1334913  55.7116493  35.5570113  57.6064913  43.1546493
  35.2110113  58.2844913  43.5806493  34.9210113  57.0084913  43.1706493
  35.4120113  57.6184913  43.2196493  20.4370113  56.6794913  54.8346493
  19.6590113  56.2894913  54.7626493  20.9280113  56.2674913  54.2436493
  20.3940113  56.5604913  54.7366493  20.6420113  66.9994913  45.3926493
  21.0650113  66.6434913  44.7186493  20.9660113  66.5774913  46.0846493
  20.7520113  66.8844913  45.3956493  27.0860113  54.3224913  54.0026493
  27.2640113  53.5134913  53.7276493  26.9430113  54.7634913  53.2636493
  27.0910113  54.2684913  53.8526493  27.6800113  59.2484913  42.7756493
  27.9670113  59.0164913  41.9856493  28.4120113  59.3274913  43.2446493
  27.8300113  59.2254913  42.7286493  28.4020113  59.5874913  37.8966493
  28.6830113  60.3754913  38.1456493  27.6260113  59.7524913  37.5336493
  28.3290113  59.7284913  37.8796493  35.2320113  55.9294913  48.5236493
  35.9890113  56.0014913  48.0956493  35.2950113  55.1564913  48.9226493
  35.3530113  55.8264913  48.5186493  17.7850113  57.2274913  52.4206493
  17.7810113  57.8144913  53.0666493  18.3790113  57.5394913  51.8636493
  17.8720113  57.3604913  52.4336493  30.1230113  67.5614913  52.9626493
  30.0890113  67.9434913  53.7466493  30.9770113  67.5194913  52.7916493
  30.2440113  67.6114913  53.0536493  30.7680113  55.6544913  38.7666493
  31.3080113  54.9724913  38.8426493  30.8300113  56.0524913  39.5406493
  30.8570113  55.6124913  38.8926493  18.7220113  56.8224913  41.3356493
  18.6080113  55.9584913  41.3666493  18.2470113  57.1164913  42.0056493
  18.6350113  56.7384913  41.4386493  28.0260113  58.0304913  40.0806493
  27.5180113  57.3684913  39.8266493  28.0780113  58.5344913  39.3706493
  27.9590113  58.0074913  39.9386493  28.0260113  54.9714913  39.9716493
  27.5710113  54.5694913  39.3456493  28.7990113  55.1264913  39.5966493
  28.0730113  54.9354913  39.8236493  26.6240113  57.3384913  44.4936493
  26.6980113  57.9064913  43.8356493  26.7450113  57.8304913  45.2036493
  26.6520113  57.4954913  44.5016493  31.8490113  67.1734913  42.9056493
  32.5500113  66.6914913  43.0946493  31.1890113  66.6044913  42.9506493
  31.8550113  67.0184913  42.9396493  21.2320113  53.1614913  42.8416493
  21.7680113  53.8494913  42.8316493  21.2350113  52.8874913  42.0136493
  21.3110113  53.2224913  42.7176493  24.1880113  63.5944913  46.8666493
  24.3600113  63.3844913  47.6956493  23.5330113  63.0604913  46.6506493
  24.1170113  63.4844913  46.9576493  30.4160113  57.5084913  50.3816493
  30.3210113  57.8274913  51.1876493  29.8230113  56.8694913  50.3436493
  30.3140113  57.4604913  50.4956493  24.9380113  63.5324913  49.4566493
  24.9910113  64.3794913  49.6586493  24.6530113  63.1624913  50.1936493
  24.9040113  63.6024913  49.5946493  31.1150113  64.2274913  48.5866493
  30.6010113  63.8154913  49.1576493  30.9890113  65.0714913  48.7676493
  31.0210113  64.2914913  48.6976493  31.6720113  53.4524913  43.2176493
  31.7210113  53.1344913  44.0286493  31.9950113  52.8084913  42.7246493
  31.7270113  53.3104913  43.2646493  34.1360113  57.6884913  51.5256493
  34.9080113  57.4634913  51.8626493  33.6610113  57.9054913  52.2256493
  34.1800113  57.6874913  51.6786493  21.6800113  56.9714913  44.4956493
  21.9520113  56.5414913  43.7876493  21.5040113  56.3354913  45.0666493
  21.6940113  56.8144913  44.4756493  34.3680113  64.6664913  38.7136493
  34.4870113  64.3794913  39.5286493  35.1750113  64.6874913  38.3836493
  34.5040113  64.6274913  38.7856493  21.5040113  64.3984913  44.0446493
  22.3550113  64.3184913  43.8716493  21.1470113  63.7164913  43.6326493
  21.5770113  64.2854913  43.9576493  19.8210113  58.0734913  47.5776493
  20.6640113  58.2934913  47.5346493  19.4320113  58.6464913  47.0466493
  19.8880113  58.1904913  47.4926493  32.2630113  61.2034913  38.2986493
  32.0430113  61.9344913  37.8766493  31.8150113  61.2544913  39.0456493
  32.1640113  61.3184913  38.3466493  23.8720113  64.4054913  42.2796493
  24.5850113  64.9004913  42.3696493  24.0940113  63.8384913  41.6536493
  24.0100113  64.3944913  42.2006493  36.4500113  56.0644913  37.7516493
  35.7880113  55.4964913  37.7746493  36.2570113  56.5764913  37.0716493
  36.3240113  56.0564913  37.6546493  18.0280113  66.0484913  45.5996493
  17.3610113  66.5364913  45.8756493  18.7080113  66.5934913  45.6286493
  18.0300113  66.2004913  45.6446493  25.6750113  59.7584913  55.6956493
  25.1910113  60.3354913  56.1376493  25.6470113  60.0534913  54.8746493
  25.5990113  59.8874913  55.6396493  36.7730113  60.4424913  50.3076493
  36.9880113  59.6424913  50.0316493  35.9230113  60.5024913  50.1186493
  36.6790113  60.3334913  50.2386493  18.0940113  62.7324913  40.7026493
  17.9090113  61.8934913  40.8546493  18.7530113  62.6964913  40.1326493
  18.1640113  62.6034913  40.6406493  34.4520113  55.6224913  40.0306493
  35.1980113  55.2154913  40.2296493  34.7150113  56.3374913  39.6056493
  34.6010113  55.6684913  39.9976493  18.2660113  66.8964913  40.2776493
  18.8180113  67.4654913  40.6416493  18.0340113  66.3814913  40.9426493
  18.3130113  66.9044913  40.4296493  22.4700113  65.8964913  47.3666493
  22.9370113  66.1854913  48.0446493  23.0420113  65.4184913  46.9126493
  22.6240113  65.8684913  47.3996493  30.9060113  57.9104913  45.1036493
  31.2500113  58.0624913  45.8906493  30.4530113  57.1724913  45.2166493
  30.8900113  57.8234913  45.2366493  18.0960113  65.3454913  37.9056493
  18.8520113  64.9134913  37.9636493  18.1110113  65.8774913  38.5966493
  18.2100113  65.3604913  38.0166493  19.0360113  63.5664913  45.9106493
  19.4670113  63.4374913  45.1636493  18.8310113  64.4144913  45.8846493
  19.0690113  63.6724913  45.7966493  25.3820113  57.1304913  39.5606493
  25.3800113  57.0134913  38.6956493  25.2010113  57.9784913  39.6526493
  25.3550113  57.2384913  39.4466493  23.1200113  67.0824913  44.1926493
  23.2460113  67.9254913  44.3796493  23.7880113  66.6834913  44.5886493
  23.2380113  67.1484913  44.2786493  21.2500113  60.5654913  54.0546493
  20.7140113  60.0594913  54.5226493  21.2700113  60.1754913  53.2746493
  21.1730113  60.4324913  54.0086493  21.7350113  59.9624913  39.1946493
  21.6070113  59.5144913  39.9326493  21.1530113  59.6204913  38.6426493
  21.6300113  59.8454913  39.2226493  21.9020113  61.7924913  45.7936493
  21.1210113  61.7334913  45.4106493  21.9740113  61.0404913  46.2306493
  21.7970113  61.6734913  45.8016493  22.3320113  61.5294913  49.2616493
  22.3570113  60.8544913  48.7106493  21.6860113  62.0254913  48.9496493
  22.2410113  61.5024913  49.1346493  32.2270113  59.2424913  47.6576493
  31.5650113  59.5704913  48.1206493  32.4140113  59.8764913  47.0886493
  32.1570113  59.3844913  47.6416493  28.8720113  55.1484913  51.0866493
  29.0210113  54.3234913  50.8436493  29.2510113  55.2034913  51.8706493
  28.9500113  55.0344913  51.1666493  30.4200113  57.2114913  41.1686493
  30.9100113  57.9284913  41.0916493  29.6300113  57.4724913  40.9056493
  30.3760113  57.3554913  41.1186493  20.1310113  62.8844913  54.8206493
  20.0940113  63.3854913  54.1066493  20.4620113  62.1324913  54.5256493
  20.1740113  62.8464913  54.6716493  31.7340113  65.0894913  53.0786493
  32.2180113  65.8074913  53.1766493  32.1280113  64.6624913  52.4276493
  31.8640113  65.1324913  52.9966493  26.0300113  67.9344913  54.2556493
  26.3840113  67.7564913  55.0326493  25.5940113  67.2054913  54.0566493
  26.0180113  67.8004913  54.3416493  27.0020113  58.6814913  46.8936493
  27.4820113  59.3804913  47.1016493  27.3750113  58.0344913  47.3446493
  27.1280113  58.6894913  46.9906493  29.1910113  61.8504913  39.1676493
  29.1830113  62.5724913  38.6776493  28.5520113  61.9854913  39.7446493
  29.0960113  61.9774913  39.1806493  34.1630113  65.7204913  43.1486493
  34.5190113  65.3704913  43.8636493  34.1550113  65.0594913  42.5786493
  34.2150113  65.5704913  43.1696493  30.2210113  65.6374913  46.3926493
  29.4240113  65.8614913  46.6666493  30.4790113  65.0434913  46.9776493
  30.1410113  65.5824913  46.5196493  33.4810113  63.6354913  51.2386493
  33.5360113  63.7604913  50.3766493  34.2340113  63.9554913  51.5406493
  33.6000113  63.7004913  51.1556493  34.5130113  53.9334913  54.2256493
  33.8760113  53.5334913  53.7836493  34.5390113  53.5024913  54.9836493
  34.4230113  53.8114913  54.2716493  20.9060113  62.4994913  40.0716493
  21.2300113  61.7204913  39.8496493  21.5520113  62.8674913  40.5266493
  21.0490113  62.4384913  40.1056493  29.2120113  63.4414913  50.8386493
  29.0570113  64.0514913  51.4426493  29.7460113  62.8834913  51.2446493
  29.2680113  63.4494913  50.9876493  17.9030113  54.1604913  41.0396493
  18.0320113  53.4524913  40.5476493  17.5360113  53.8424913  41.7646493
  17.8680113  54.0084913  41.0746493  27.5960113  61.8414913  41.4966493
  27.6550113  62.4914913  42.0756493  27.4070113  61.1454913  41.9876493
  27.5770113  61.8344913  41.6546493  32.8220113  66.1704913  47.3656493
  32.3430113  66.4684913  46.6996493  32.4660113  65.3944913  47.5436493
  32.6990113  66.0994913  47.2936493  22.0920113  56.3584913  38.0086493
  21.5810113  56.4114913  37.3026493  22.8760113  56.5984913  37.7126493
  22.1320113  56.4014913  37.8606493  26.8190113  63.8884913  45.9276493
  25.9720113  63.6944913  46.0086493  27.1430113  63.7234913  46.7206493
  26.7410113  63.8354913  46.0566493  20.6670113  63.5814913  48.2436493
  21.3890113  64.0694913  48.2066493  20.3970113  63.5514913  47.4146493
  20.7340113  63.6494913  48.1156493  23.8970113  58.7524913  44.9786493
  24.7430113  58.5624913  45.0766493  23.5270113  57.9754913  44.8406493
  23.9670113  58.6094913  44.9726493  18.7180113  60.0904913  41.6336493
  19.2070113  59.7984913  42.2946493  18.8470113  59.4974913  41.0066493
  18.8090113  59.9594913  41.6386493  33.7530113  63.1124913  48.4846493
  33.7460113  62.3364913  48.8826493  32.9120113  63.3464913  48.4776493
  33.6280113  63.0324913  48.5426493  23.2430113  61.5244913  37.1196493
  22.6330113  61.1194913  37.5936493  22.8570113  61.6424913  36.3466493
  23.0960113  61.4814913  37.0756493  20.0620113  64.6334913  52.5216493
  19.6410113  64.1154913  51.9606493  19.7100113  65.4194913  52.3786493
  19.9480113  64.6734913  52.4176493  35.0090113  63.1834913  45.9216493
  34.7230113  63.5844913  46.6416493  35.8690113  63.1214913  46.0486493
  35.0940113  63.2334913  46.0466493  24.6980113  59.9854913  39.8296493
  24.9700113  60.8114913  39.8966493  23.8350113  60.0604913  39.7336493
  24.6110113  60.1184913  39.8246493  32.6710113  57.1074913  54.4616493
  32.1460113  57.5664913  54.9856493  32.3100113  56.3124913  54.4556493
  32.5400113  57.0574913  54.5376493  18.1780113  55.9554913  46.3656493
  18.2220113  56.2994913  45.5646493  18.9330113  56.1924913  46.7326493
  18.2960113  56.0414913  46.3016493  31.1630113  60.6764913  54.5376493
  31.2360113  60.7804913  55.4006493  30.5290113  61.2344913  54.3166493
  31.0800113  60.7744913  54.6326493  33.4310113  60.9954913  52.9026493
  33.7500113  61.7814913  53.1056493  33.0610113  60.7254913  53.6456493
  33.4240113  61.0714913  53.0426493  32.7450113  67.4194913  38.4326493
  33.0790113  66.6134913  38.4676493  31.9900113  67.3474913  38.8626493
  32.6830113  67.2894913  38.5016493  33.2270113  59.2534913  44.0916493
  32.4820113  58.9304913  44.4096493  33.2290113  60.0794913  44.3716493
  33.1170113  59.3274913  44.1796493  36.1290113  61.5374913  55.6376493
  36.0770113  61.1964913  54.8366493  36.8660113  62.0044913  55.6156493
  36.2300113  61.5564913  55.5156493  35.6670113  65.2134913  51.8436493
  36.2950113  64.6644913  51.5876493  35.6060113  65.7784913  51.1816493
  35.7510113  65.2164913  51.7076493  30.1190113  65.2944913  37.8356493
  30.8030113  64.7804913  37.6666493  29.7020113  65.3404913  37.0706493
  30.1580113  65.2254913  37.6976493  24.8010113  66.4444913  49.1396493
  24.5030113  67.0364913  49.7066493  24.8560113  66.8864913  48.3906493
  24.7650113  66.5974913  49.1126493  22.7800113  65.3944913  52.5376493
  21.9740113  65.1044913  52.7046493  22.6910113  66.2624913  52.5436493
  22.6480113  65.4794913  52.5626493  32.1390113  55.5834913  51.5526493
  32.8830113  56.0354913  51.4896493  31.5730113  56.0534913  51.0836493
  32.1660113  55.7204913  51.4746493  27.3170113  62.8674913  48.6306493
  27.7930113  63.2414913  49.2586493  26.4940113  63.0014913  48.8896493
  27.2660113  62.9424913  48.7616493  24.0270113  58.4704913  51.3716493
  24.1880113  57.7264913  51.7986493  23.9820113  58.2214913  50.5366493
  24.0440113  58.3234913  51.3116493  33.4240113  53.5634913  49.2226493
  33.1440113  54.3884913  49.1786493  34.1400113  53.6164913  49.7186493
  33.4890113  53.6934913  49.2896493  25.7790113  54.2784913  51.2516493
  26.4840113  54.5984913  50.8496493  26.0200113  53.4714913  51.4786493
  25.9180113  54.2064913  51.2256493  29.0730113  65.1224913  54.2366493
  29.8300113  65.4084913  53.9106493  28.5260113  65.1744913  53.5586493
  29.1040113  65.1724913  54.0876493  34.8450113  59.8184913  38.0796493
  35.2230113  60.4954913  37.6796493  34.0030113  60.0424913  38.1106493
  34.7760113  59.9514913  38.0246493  26.3580113  63.2644913  37.1626493
  25.5530113  63.0874913  36.8776493  26.3250113  64.1154913  37.3546493
  26.2340113  63.3634913  37.1496493  22.2880113  59.3314913  47.3126493
  22.7280113  59.2284913  46.5666493  22.8330113  59.0184913  47.9176493
  22.4330113  59.2704913  47.2916493  30.3040113  58.4334913  52.9046493
  29.6560113  58.9034913  53.2526493  30.8690113  58.3444913  53.5636493
  30.2920113  58.4894913  53.0536493  29.9920113  59.9704913  49.2026493
  30.2940113  60.3904913  49.9056493  30.0280113  59.1304913  49.4346493
  30.0420113  59.9084913  49.3406493  32.5400113  59.4174913  41.4546493
  32.7470113  59.2164913  42.2786493  33.2960113  59.6854913  41.1126493
  32.6820113  59.4274913  41.5256493  33.5620113  55.5004913  42.9286493
  32.8480113  55.0294913  43.0996493  33.4000113  55.8414913  42.1426493
  33.4330113  55.4814913  42.8376493  34.0050113  63.4444913  41.3086493
  34.4810113  62.7154913  41.2606493  33.1840113  63.1584913  41.2326493
  33.9540113  63.2944913  41.2896493  27.4760113  65.3564913  52.1476493
  26.6810113  65.2924913  52.4986493  27.5470113  66.2034913  51.9526493
  27.3690113  65.4714913  52.1706493  18.4000113  54.7144913  53.3946493
  18.2600113  55.5094913  53.0636493  17.6140113  54.4714913  53.6836493
  18.2630113  54.7964913  53.3886493  21.4640113  57.4584913  40.6196493
  21.5900113  57.1294913  39.8216493  20.6520113  57.2094913  40.8186493
  21.3630113  57.3734913  40.5316493  30.2210113  64.6114913  43.6636493
  30.2970113  64.9524913  44.4626493  30.3900113  63.7644913  43.7846493
  30.2570113  64.5364913  43.7996493  27.7430113  63.8854913  43.2286493
  27.4450113  63.5704913  43.9856493  28.4380113  64.3584913  43.4636493
  27.8020113  63.9084913  43.3756493  36.1410113  60.6124913  53.0666493
  35.2860113  60.4904913  53.1926493  36.2940113  60.2174913  52.3036493
  36.0370113  60.5354913  52.9726493  30.6540113  61.2774913  51.6426493
  30.3990113  60.5584913  52.0646493  31.4750113  61.3934913  51.9126493
  30.7380113  61.1884913  51.7446493  28.5880113  62.4674913  54.8296493
  28.9110113  63.1534913  54.3976493  27.8840113  62.7904913  55.2316493
  28.5310113  62.6164913  54.8246493  28.3730113  65.9314913  48.6886493
  27.6790113  66.3334913  49.0316493  29.0500113  66.3644913  49.0276493
  28.3700113  66.0544913  48.7896493  21.4410113  59.4694913  51.0356493
  21.8160113  60.0884913  50.5486493  22.1150113  58.9954913  51.3206493
  21.5960113  59.4914913  51.0056493  19.2160113  57.9174913  50.3106493
  19.2930113  57.7484913  49.4576493  19.9620113  58.3234913  50.5076493
  19.3370113  57.9524913  50.2136493  34.7750113  60.5574913  40.7506493
  34.8780113  60.4994913  39.8866493  35.5160113  60.2254913  41.0686493
  34.9000113  60.5004913  40.6696493  21.7700113  55.3274913  52.7216493
  21.6890113  54.4834913  52.9276493  21.4560113  55.3714913  51.9086493
  21.7120113  55.2094913  52.6316493  33.8770113  60.7034913  50.1066493
  33.8750113  59.8404913  50.2306493  33.9440113  61.0274913  50.9136493
  33.8870113  60.6234913  50.2436493  18.6130113  63.1434913  50.5346493
  18.9330113  63.3624913  49.7536493  18.5130113  62.2784913  50.4796493
  18.6450113  63.0484913  50.4116493  20.0690113  59.0794913  37.1526493
  19.3970113  59.0934913  37.7086493  20.1640113  58.2314913  36.9686493
  19.9840113  58.9564913  37.2076493  29.7560113  55.5034913  53.8886493
  29.8480113  56.2154913  54.3826493  29.1190113  55.0584913  54.2856493
  29.6750113  55.5424913  54.0206493  28.7500113  55.6934913  44.7426493
  28.0500113  56.2114913  44.6866493  28.7880113  55.3134913  43.9586493
  28.6520113  55.7144913  44.6186493  24.0570113  67.7844913  38.2666493
  24.4980113  67.8644913  39.0146493  23.2520113  67.5684913  38.5246493
  24.0030113  67.7644913  38.4156493  32.3480113  56.2094913  47.5426493
  33.2030113  56.3084913  47.6876493  31.9790113  56.7624913  48.1076493
  32.4200113  56.3064913  47.6476493  23.3760113  62.4354913  51.9196493
  22.9800113  63.2094913  51.9946493  22.9700113  62.0624913  51.2436493
  23.2580113  62.4944913  51.8306493  32.6520113  61.4894913  46.0336493
  33.3180113  62.0304913  46.1936493  32.3070113  61.8004913  45.2946493
  32.6990113  61.6154913  45.9486493  21.3860113  66.8544913  38.8676493
  21.1420113  66.5474913  39.6476493  21.3530113  66.1514913  38.3516493
  21.3450113  66.7054913  38.9066493  24.2050113  65.0994913  37.6106493
  23.3870113  64.8314913  37.7506493  24.1770113  65.9514913  37.7956493
  24.0800113  65.1864913  37.6586493  23.8050113  55.4124913  49.3696493
  22.9410113  55.4964913  49.4496493  24.0250113  54.8984913  50.0386493
  23.7100113  55.3494913  49.4806493  27.9080113  56.1604913  47.7436493
  27.1710113  55.7064913  47.8566493  28.4790113  55.7584913  48.2666493
  27.8830113  56.0334913  47.8376493  30.6400113  67.0084913  49.5316493
  30.8460113  67.3094913  50.3236493  30.5790113  67.7304913  49.0466493
  30.6610113  67.1594913  49.5766493  25.4110113  60.4894913  52.9476493
  25.0890113  59.9134913  52.3776493  25.0520113  61.2444913  52.7016493
  25.3110113  60.5154913  52.8276493  26.2070113  53.7414913  37.5746493
  26.2850113  53.9884913  36.7416493  25.4640113  54.1184913  37.8326493
  26.1090113  53.8334913  37.4896493  35.4520113  65.6474913  48.9896493
  35.4200113  64.7854913  48.8546493  34.7590113  65.9494913  48.5556493
  35.3450113  65.5644913  48.9056493  21.0250113  55.4954913  50.0176493
  20.6820113  54.7284913  49.7836493  20.3300113  56.0194913  50.0816493
  20.8720113  55.4594913  49.9926493  30.0710113  54.3514913  46.9946493
  30.7410113  54.8954913  47.1216493  29.5680113  54.7754913  46.4216493
  30.0960113  54.4944913  46.9286493  29.4300113  60.1594913  44.4876493
  29.9810113  59.5524913  44.7876493  29.0050113  60.4224913  45.2026493
  29.4490113  60.1084913  44.6366493  19.6780113  58.8094913  43.9736493
  19.3100113  59.1114913  44.7046493  20.2120113  58.1804913  44.2576493
  19.7020113  58.7614913  44.1236493  19.3660113  67.2174913  51.4846493
  18.7920113  67.6334913  51.9936493  20.0990113  67.6824913  51.5796493
  19.3900113  67.3474913  51.5736493  31.4000113  61.9904913  41.0496493
  31.4680113  61.1404913  41.2306493  30.5770113  62.0764913  40.7716493
  31.2880113  61.8774913  41.0356493  25.3190113  62.8814913  39.9876493
  25.4190113  63.0204913  39.1326493  26.1370113  62.8214913  40.2836493
  25.4540113  62.8924913  39.9046493  34.6740113  63.3634913  54.2006493
  35.3080113  63.1934913  54.7746493  35.0910113  63.7664913  53.5486493
  34.8290113  63.3984913  54.1896493  30.5540113  67.2104913  39.7896493
  30.3030113  67.0824913  40.6156493  30.2370113  66.5154913  39.3686493
  30.4700113  67.0894913  39.8496493  35.2990113  57.9274913  54.9386493
  35.1030113  58.5714913  55.4936493  34.5770113  57.4374913  54.9306493
  35.1640113  57.9504913  55.0196493  35.1980113  58.8684913  47.9096493
  34.3650113  59.1184913  47.8376493  35.1420113  58.0284913  48.1386493
  35.0670113  58.7814913  47.9326493  24.4580113  55.8564913  53.1036493
  24.6920113  55.2804913  52.4906493  23.6160113  55.6754913  53.2446493
  24.3680113  55.7444913  53.0336493  32.0850113  63.4744913  55.5556493
  32.9560113  63.4384913  55.5196493  31.8660113  63.8944913  54.8236493
  32.1820113  63.5304913  55.4426493  27.4400113  65.4184913  39.2196493
  28.1570113  65.0714913  38.8636493  27.4060113  66.2184913  38.8716493
  27.5410113  65.4854913  39.1156493  28.8490113  54.0594913  23.4584083
  28.6040113  54.5474913  22.7784083  29.7120113  53.9864913  23.3584083
  28.9400113  54.1204913  23.3434083  28.6580113  60.9754913  28.1294083
  28.1340113  61.5714913  28.4924083  29.0550113  60.6074913  28.8134083
  28.6390113  61.0094913  28.2844083  18.5270113  65.1154913  23.5854083
  18.0860113  65.2334913  24.3284083  18.2440113  64.3404913  23.3004083
  18.4200113  65.0184913  23.6534083  18.2700113  58.9074913  20.0924083
  17.4920113  59.0694913  19.7324083  18.3090113  58.0364913  20.1144083
  18.1610113  58.8024913  20.0424083  21.4090113  64.1704913  18.7644083
  21.0170113  63.7994913  18.0784083  21.3290113  63.5724913  19.3934083
  21.3390113  64.0274913  18.7554083  31.3290113  62.0424913  24.8054083
  31.4090113  62.0464913  23.9364083  30.7450113  61.4104913  24.9544083
  31.2540113  61.9494913  24.6994083  21.0360113  65.8114913  22.6644083
  21.6440113  65.6414913  23.2674083  20.2850113  65.6714913  23.0854083
  21.0150113  65.7654913  22.8154083  25.3180113  55.1464913  22.6134083
  25.2480113  55.8234913  22.0674083  26.0590113  54.7584913  22.3644083
  25.4170113  55.1894913  22.4954083  18.4670113  67.8504913  29.8404083
  18.5960113  67.5704913  30.6564083  17.8570113  67.3094913  29.5314083
  18.3960113  67.7294913  29.9154083  25.0410113  65.3754913  34.9074083
  24.8050113  65.3724913  35.7474083  24.2930113  65.2274913  34.4834083
  24.8950113  65.3524913  34.9684083  19.9130113  62.3714913  24.0424083
  19.4510113  61.9794913  23.4154083  20.6130113  61.8584913  24.1344083
  19.9480113  62.2384913  23.9634083  24.4210113  57.9814913  29.3894083
  25.0990113  57.9994913  28.8404083  24.3760113  57.1454913  29.6344083
  24.5140113  57.8604913  29.3444083  21.9140113  60.4714913  24.0654083
  22.7310113  60.2844913  24.3084083  21.4370113  59.8574913  24.4614083
  21.9640113  60.3534913  24.1604083  26.1180113  66.4524913  26.6754083
  26.4660113  65.6534913  26.7054083  26.7830113  66.9564913  26.4204083
  26.2680113  66.4084913  26.6424083  26.1750113  65.9014913  22.8864083
  26.5060113  65.2574913  23.3724083  26.4150113  65.6904913  22.0754083
  26.2590113  65.7754913  22.8384083  28.1430113  60.0324913  34.2254083
  27.2950113  59.9334913  34.0474083  28.1720113  60.7774913  34.6794083
  28.0220113  60.1284913  34.2664083  22.5110113  55.5654913  23.3314083
  22.2150113  56.0664913  22.6814083  23.3780113  55.6434913  23.2744083
  22.5950113  55.6514913  23.2274083  32.7010113  52.9924913  33.3394083
  32.5430113  53.7614913  32.9574083  31.9290113  52.7724913  33.6834083
  32.5630113  53.0734913  33.3344083  25.4900113  54.7074913  25.5544083
  25.5630113  55.5674913  25.6834083  25.4520113  54.6324913  24.6864083
  25.4950113  54.8234913  25.4454083  30.1630113  57.6334913  17.8534083
  29.7130113  58.3144913  18.1604083  30.2770113  57.1294913  18.5564083
  30.1140113  57.6594913  18.0024083  18.3690113  60.1324913  27.0554083
  18.1130113  60.9634913  26.9804083  17.7050113  59.7494913  27.4724083
  18.2330113  60.1984913  27.1064083  24.1190113  67.6864913  22.4354083
  23.5400113  67.4114913  23.0274083  24.7430113  67.0774913  22.4604083
  24.1260113  67.5564913  22.5264083  21.3980113  54.9494913  27.5464083
  20.8770113  54.3214913  27.2384083  21.9890113  54.5124913  28.0174083
  21.4090113  54.7914913  27.5704083  24.7040113  57.0824913  36.8444083
  24.8210113  56.6284913  36.1084083  24.9920113  57.8804913  36.6414083
  24.7640113  57.1334913  36.7054083  35.5570113  57.6064913  24.1484083
  35.2110113  58.2844913  24.5744083  34.9210113  57.0084913  24.1644083
  35.4120113  57.6184913  24.2134083  20.4370113  56.6794913  35.8284083
  19.6590113  56.2894913  35.7564083  20.9280113  56.2674913  35.2374083
  20.3940113  56.5604913  35.7304083  20.6420113  66.9994913  26.3864083
  21.0650113  66.6434913  25.7124083  20.9660113  66.5774913  27.0784083
  20.7520113  66.8844913  26.3894083  27.0860113  54.3224913  34.9964083
  27.2640113  53.5134913  34.7214083  26.9430113  54.7634913  34.2574083
  27.0910113  54.2684913  34.8464083  27.6800113  59.2484913  23.7694083
  27.9670113  59.0164913  22.9794083  28.4120113  59.3274913  24.2384083
  27.8300113  59.2254913  23.7224083  28.4020113  59.5874913  18.8904083
  28.6830113  60.3754913  19.1394083  27.6260113  59.7524913  18.5274083
  28.3290113  59.7284913  18.8734083  35.2320113  55.9294913  29.5174083
  35.9890113  56.0014913  29.0894083  35.2950113  55.1564913  29.9164083
  35.3530113  55.8264913  29.5124083  17.7850113  57.2274913  33.4144083
  17.7810113  57.8144913  34.0604083  18.3790113  57.5394913  32.8574083
  17.8720113  57.3604913  33.4274083  30.1230113  67.5614913  33.9564083
  30.0890113  67.9434913  34.7404083  30.9770113  67.5194913  33.7854083
  30.2440113  67.6114913  34.0474083  30.7680113  55.6544913  19.7604083
  31.3080113  54.9724913  19.8364083  30.8300113  56.0524913  20.5344083
  30.8570113  55.6124913  19.8864083  18.7220113  56.8224913  22.3294083
  18.6080113  55.9584913  22.3604083  18.2470113  57.1164913  22.9994083
  18.6350113  56.7384913  22.4324083  28.0260113  58.0304913  21.0744083
  27.5180113  57.3684913  20.8204083  28.0780113  58.5344913  20.3644083
  27.9590113  58.0074913  20.9324083  28.0260113  54.9714913  20.9654083
  27.5710113  54.5694913  20.3394083  28.7990113  55.1264913  20.5904083
  28.0730113  54.9354913  20.8174083  26.6240113  57.3384913  25.4874083
  26.6980113  57.9064913  24.8294083  26.7450113  57.8304913  26.1974083
  26.6520113  57.4954913  25.4954083  31.8490113  67.1734913  23.8994083
  32.5500113  66.6914913  24.0884083  31.1890113  66.6044913  23.9444083
  31.8550113  67.0184913  23.9334083  21.2320113  53.1614913  23.8354083
  21.7680113  53.8494913  23.8254083  21.2350113  52.8874913  23.0074083
  21.3110113  53.2224913  23.7114083  24.1880113  63.5944913  27.8604083
  24.3600113  63.3844913  28.6894083  23.5330113  63.0604913  27.6444083
  24.1170113  63.4844913  27.9514083  30.4160113  57.5084913  31.3754083
  30.3210113  57.8274913  32.1814083  29.8230113  56.8694913  31.3374083
  30.3140113  57.4604913  31.4894083  24.9380113  63.5324913  30.4504083
  24.9910113  64.3794913  30.6524083  24.6530113  63.1624913  31.1874083
  24.9040113  63.6024913  30.5884083  31.1150113  64.2274913  29.5804083
  30.6010113  63.8154913  30.1514083  30.9890113  65.0714913  29.7614083
  31.0210113  64.2914913  29.6914083  31.6720113  53.4524913  24.2114083
  31.7210113  53.1344913  25.0224083  31.9950113  52.8084913  23.7184083
  31.7270113  53.3104913  24.2584083  34.1360113  57.6884913  32.5194083
  34.9080113  57.4634913  32.8564083  33.6610113  57.9054913  33.2194083
  34.1800113  57.6874913  32.6724083  21.6800113  56.9714913  25.4894083
  21.9520113  56.5414913  24.7814083  21.5040113  56.3354913  26.0604083
  21.6940113  56.8144913  25.4694083  34.3680113  64.6664913  19.7074083
  34.4870113  64.3794913  20.5224083  35.1750113  64.6874913  19.3774083
  34.5040113  64.6274913  19.7794083  21.5040113  64.3984913  25.0384083
  22.3550113  64.3184913  24.8654083  21.1470113  63.7164913  24.6264083
  21.5770113  64.2854913  24.9514083  19.8210113  58.0734913  28.5714083
  20.6640113  58.2934913  28.5284083  19.4320113  58.6464913  28.0404083
  19.8880113  58.1904913  28.4864083  32.2630113  61.2034913  19.2924083
  32.0430113  61.9344913  18.8704083  31.8150113  61.2544913  20.0394083
  32.1640113  61.3184913  19.3404083  23.8720113  64.4054913  23.2734083
  24.5850113  64.9004913  23.3634083  24.0940113  63.8384913  22.6474083
  24.0100113  64.3944913  23.1944083  36.4500113  56.0644913  18.7454083
  35.7880113  55.4964913  18.7684083  36.2570113  56.5764913  18.0654083
  36.3240113  56.0564913  18.6484083  18.0280113  66.0484913  26.5934083
  17.3610113  66.5364913  26.8694083  18.7080113  66.5934913  26.6224083
  18.0300113  66.2004913  26.6384083  25.6750113  59.7584913  36.6894083
  25.1910113  60.3354913  37.1314083  25.6470113  60.0534913  35.8684083
  25.5990113  59.8874913  36.6334083  36.7730113  60.4424913  31.3014083
  36.9880113  59.6424913  31.0254083  35.9230113  60.5024913  31.1124083
  36.6790113  60.3334913  31.2324083  18.0940113  62.7324913  21.6964083
  17.9090113  61.8934913  21.8484083  18.7530113  62.6964913  21.1264083
  18.1640113  62.6034913  21.6344083  34.4520113  55.6224913  21.0244083
  35.1980113  55.2154913  21.2234083  34.7150113  56.3374913  20.5994083
  34.6010113  55.6684913  20.9914083  18.2660113  66.8964913  21.2714083
  18.8180113  67.4654913  21.6354083  18.0340113  66.3814913  21.9364083
  18.3130113  66.9044913  21.4234083  22.4700113  65.8964913  28.3604083
  22.9370113  66.1854913  29.0384083  23.0420113  65.4184913  27.9064083
  22.6240113  65.8684913  28.3934083  30.9060113  57.9104913  26.0974083
  31.2500113  58.0624913  26.8844083  30.4530113  57.1724913  26.2104083
  30.8900113  57.8234913  26.2304083  18.0960113  65.3454913  18.8994083
  18.8520113  64.9134913  18.9574083  18.1110113  65.8774913  19.5904083
  18.2100113  65.3604913  19.0104083  19.0360113  63.5664913  26.9044083
  19.4670113  63.4374913  26.1574083  18.8310113  64.4144913  26.8784083
  19.0690113  63.6724913  26.7904083  25.3820113  57.1304913  20.5544083
  25.3800113  57.0134913  19.6894083  25.2010113  57.9784913  20.6464083
  25.3550113  57.2384913  20.4404083  23.1200113  67.0824913  25.1864083
  23.2460113  67.9254913  25.3734083  23.7880113  66.6834913  25.5824083
  23.2380113  67.1484913  25.2724083  21.2500113  60.5654913  35.0484083
  20.7140113  60.0594913  35.5164083  21.2700113  60.1754913  34.2684083
  21.1730113  60.4324913  35.0024083  21.7350113  59.9624913  20.1884083
  21.6070113  59.5144913  20.9264083  21.1530113  59.6204913  19.6364083
  21.6300113  59.8454913  20.2164083  21.9020113  61.7924913  26.7874083
  21.1210113  61.7334913  26.4044083  21.9740113  61.0404913  27.2244083
  21.7970113  61.6734913  26.7954083  22.3320113  61.5294913  30.2554083
  22.3570113  60.8544913  29.7044083  21.6860113  62.0254913  29.9434083
  22.2410113  61.5024913  30.1284083  32.2270113  59.2424913  28.6514083
  31.5650113  59.5704913  29.1144083  32.4140113  59.8764913  28.0824083
  32.1570113  59.3844913  28.6354083  28.8720113  55.1484913  32.0804083
  29.0210113  54.3234913  31.8374083  29.2510113  55.2034913  32.8644083
  28.9500113  55.0344913  32.1604083  30.4200113  57.2114913  22.1624083
  30.9100113  57.9284913  22.0854083  29.6300113  57.4724913  21.8994083
  30.3760113  57.3554913  22.1124083  20.1310113  62.8844913  35.8144083
  20.0940113  63.3854913  35.1004083  20.4620113  62.1324913  35.5194083
  20.1740113  62.8464913  35.6654083  31.7340113  65.0894913  34.0724083
  32.2180113  65.8074913  34.1704083  32.1280113  64.6624913  33.4214083
  31.8640113  65.1324913  33.9904083  26.0300113  67.9344913  35.2494083
  26.3840113  67.7564913  36.0264083  25.5940113  67.2054913  35.0504083
  26.0180113  67.8004913  35.3354083  27.0020113  58.6814913  27.8874083
  27.4820113  59.3804913  28.0954083  27.3750113  58.0344913  28.3384083
  27.1280113  58.6894913  27.9844083  29.1910113  61.8504913  20.1614083
  29.1830113  62.5724913  19.6714083  28.5520113  61.9854913  20.7384083
  29.0960113  61.9774913  20.1744083  34.1630113  65.7204913  24.1424083
  34.5190113  65.3704913  24.8574083  34.1550113  65.0594913  23.5724083
  34.2150113  65.5704913  24.1634083  30.2210113  65.6374913  27.3864083
  29.4240113  65.8614913  27.6604083  30.4790113  65.0434913  27.9714083
  30.1410113  65.5824913  27.5134083  23.7840113  54.1924913  19.8224083
  23.8810113  54.0854913  20.6834083  23.0760113  54.6984913  19.7574083
  23.6940113  54.2514913  19.9404083  33.4810113  63.6354913  32.2324083
  33.5360113  63.7604913  31.3704083  34.2340113  63.9554913  32.5344083
  33.6000113  63.7004913  32.1494083  34.5130113  53.9334913  35.2194083
  33.8760113  53.5334913  34.7774083  34.5390113  53.5024913  35.9774083
  34.4230113  53.8114913  35.2654083  20.9060113  62.4994913  21.0654083
  21.2300113  61.7204913  20.8434083  21.5520113  62.8674913  21.5204083
  21.0490113  62.4384913  21.0994083  29.2120113  63.4414913  31.8324083
  29.0570113  64.0514913  32.4364083  29.7460113  62.8834913  32.2384083
  29.2680113  63.4494913  31.9814083  17.9030113  54.1604913  22.0334083
  18.0320113  53.4524913  21.5414083  17.5360113  53.8424913  22.7584083
  17.8680113  54.0084913  22.0684083  27.5960113  61.8414913  22.4904083
  27.6550113  62.4914913  23.0694083  27.4070113  61.1454913  22.9814083
  27.5770113  61.8344913  22.6484083  32.8220113  66.1704913  28.3594083
  32.3430113  66.4684913  27.6934083  32.4660113  65.3944913  28.5374083
  32.6990113  66.0994913  28.2874083  22.0920113  56.3584913  19.0024083
  21.5810113  56.4114913  18.2964083  22.8760113  56.5984913  18.7064083
  22.1320113  56.4014913  18.8544083  26.8190113  63.8884913  26.9214083
  25.9720113  63.6944913  27.0024083  27.1430113  63.7234913  27.7144083
  26.7410113  63.8354913  27.0504083  20.6670113  63.5814913  29.2374083
  21.3890113  64.0694913  29.2004083  20.3970113  63.5514913  28.4084083
  20.7340113  63.6494913  29.1094083  23.8970113  58.7524913  25.9724083
  24.7430113  58.5624913  26.0704083  23.5270113  57.9754913  25.8344083
  23.9670113  58.6094913  25.9664083  18.7180113  60.0904913  22.6274083
  19.2070113  59.7984913  23.2884083  18.8470113  59.4974913  22.0004083
  18.8090113  59.9594913  22.6324083  33.7530113  63.1124913  29.4784083
  33.7460113  62.3364913  29.8764083  32.9120113  63.3464913  29.4714083
  33.6280113  63.0324913  29.5364083  23.2430113  61.5244913  18.1134083
  22.6330113  61.1194913  18.5874083  22.8570113  61.6424913  17.3404083
  23.0960113  61.4814913  18.0694083  20.0620113  64.6334913  33.5154083
  19.6410113  64.1154913  32.9544083  19.7100113  65.4194913  33.3724083
  19.9480113  64.6734913  33.4114083  35.0090113  63.1834913  26.9154083
  34.7230113  63.5844913  27.6354083  35.8690113  63.1214913  27.0424083
  35.0940113  63.2334913  27.0404083  24.6980113  59.9854913  20.8234083
  24.9700113  60.8114913  20.8904083  23.8350113  60.0604913  20.7274083
  24.6110113  60.1184913  20.8184083  32.6710113  57.1074913  35.4554083
  32.1460113  57.5664913  35.9794083  32.3100113  56.3124913  35.4494083
  32.5400113  57.0574913  35.5314083  18.1780113  55.9554913  27.3594083
  18.2220113  56.2994913  26.5584083  18.9330113  56.1924913  27.7264083
  18.2960113  56.0414913  27.2954083  31.1630113  60.6764913  35.5314083
  31.2360113  60.7804913  36.3944083  30.5290113  61.2344913  35.3104083
  31.0800113  60.7744913  35.6264083  33.4310113  60.9954913  33.8964083
  33.7500113  61.7814913  34.0994083  33.0610113  60.7254913  34.6394083
  33.4240113  61.0714913  34.0364083  32.7450113  67.4194913  19.4264083
  33.0790113  66.6134913  19.4614083  31.9900113  67.3474913  19.8564083
  32.6830113  67.2894913  19.4954083  33.2270113  59.2534913  25.0854083
  32.4820113  58.9304913  25.4034083  33.2290113  60.0794913  25.3654083
  33.1170113  59.3274913  25.1734083  36.1290113  61.5374913  36.6314083
  36.0770113  61.1964913  35.8304083  36.8660113  62.0044913  36.6094083
  36.2300113  61.5564913  36.5094083  35.6670113  65.2134913  32.8374083
  36.2950113  64.6644913  32.5814083  35.6060113  65.7784913  32.1754083
  35.7510113  65.2164913  32.7014083  30.1190113  65.2944913  18.8294083
  30.8030113  64.7804913  18.6604083  29.7020113  65.3404913  18.0644083
  30.1580113  65.2254913  18.6914083  24.8010113  66.4444913  30.1334083
  24.5030113  67.0364913  30.7004083  24.8560113  66.8864913  29.3844083
  24.7650113  66.5974913  30.1064083  22.7800113  65.3944913  33.5314083
  21.9740113  65.1044913  33.6984083  22.6910113  66.2624913  33.5374083
  22.6480113  65.4794913  33.5564083  32.1390113  55.5834913  32.5464083
  32.8830113  56.0354913  32.4834083  31.5730113  56.0534913  32.0774083
  32.1660113  55.7204913  32.4684083  27.3170113  62.8674913  29.6244083
  27.7930113  63.2414913  30.2524083  26.4940113  63.0014913  29.8834083
  27.2660113  62.9424913  29.7554083  24.0270113  58.4704913  32.3654083
  24.1880113  57.7264913  32.7924083  23.9820113  58.2214913  31.5304083
  24.0440113  58.3234913  32.3054083  33.4240113  53.5634913  30.2164083
  33.1440113  54.3884913  30.1724083  34.1400113  53.6164913  30.7124083
  33.4890113  53.6934913  30.2834083  25.7790113  54.2784913  32.2454083
  26.4840113  54.5984913  31.8434083  26.0200113  53.4714913  32.4724083
  25.9180113  54.2064913  32.2194083  29.0730113  65.1224913  35.2304083
  29.8300113  65.4084913  34.9044083  28.5260113  65.1744913  34.5524083
  29.1040113  65.1724913  35.0814083  34.8450113  59.8184913  19.0734083
  35.2230113  60.4954913  18.6734083  34.0030113  60.0424913  19.1044083
  34.7760113  59.9514913  19.0184083  26.3580113  63.2644913  18.1564083
  25.5530113  63.0874913  17.8714083  26.3250113  64.1154913  18.3484083
  26.2340113  63.3634913  18.1434083  22.2880113  59.3314913  28.3064083
  22.7280113  59.2284913  27.5604083  22.8330113  59.0184913  28.9114083
  22.4330113  59.2704913  28.2854083  30.3040113  58.4334913  33.8984083
  29.6560113  58.9034913  34.2464083  30.8690113  58.3444913  34.5574083
  30.2920113  58.4894913  34.0474083  29.9920113  59.9704913  30.1964083
  30.2940113  60.3904913  30.8994083  30.0280113  59.1304913  30.4284083
  30.0420113  59.9084913  30.3344083  32.5400113  59.4174913  22.4484083
  32.7470113  59.2164913  23.2724083  33.2960113  59.6854913  22.1064083
  32.6820113  59.4274913  22.5194083  25.8350113  54.3164913  28.3534083
  25.0090113  54.1674913  28.5904083  25.7950113  54.3514913  27.4824083
  25.7070113  54.2994913  28.2594083  33.5620113  55.5004913  23.9224083
  32.8480113  55.0294913  24.0934083  33.4000113  55.8414913  23.1364083
  33.4330113  55.4814913  23.8314083  34.0050113  63.4444913  22.3024083
  34.4810113  62.7154913  22.2544083  33.1840113  63.1584913  22.2264083
  33.9540113  63.2944913  22.2834083  27.4760113  65.3564913  33.1414083
  26.6810113  65.2924913  33.4924083  27.5470113  66.2034913  32.9464083
  27.3690113  65.4714913  33.1644083  18.4000113  54.7144913  34.3884083
  18.2600113  55.5094913  34.0574083  17.6140113  54.4714913  34.6774083
  18.2630113  54.7964913  34.3824083  21.4640113  57.4584913  21.6134083
  21.5900113  57.1294913  20.8154083  20.6520113  57.2094913  21.8124083
  21.3630113  57.3734913  21.5254083  30.2210113  64.6114913  24.6574083
  30.2970113  64.9524913  25.4564083  30.3900113  63.7644913  24.7784083
  30.2570113  64.5364913  24.7934083  27.7430113  63.8854913  24.2224083
  27.4450113  63.5704913  24.9794083  28.4380113  64.3584913  24.4574083
  27.8020113  63.9084913  24.3694083  36.1410113  60.6124913  34.0604083
  35.2860113  60.4904913  34.1864083  36.2940113  60.2174913  33.2974083
  36.0370113  60.5354913  33.9664083  30.6540113  61.2774913  32.6364083
  30.3990113  60.5584913  33.0584083  31.4750113  61.3934913  32.9064083
  30.7380113  61.1884913  32.7384083  28.5880113  62.4674913  35.8234083
  28.9110113  63.1534913  35.3914083  27.8840113  62.7904913  36.2254083
  28.5310113  62.6164913  35.8184083  28.3730113  65.9314913  29.6824083
  27.6790113  66.3334913  30.0254083  29.0500113  66.3644913  30.0214083
  28.3700113  66.0544913  29.7834083  21.4410113  59.4694913  32.0294083
  21.8160113  60.0884913  31.5424083  22.1150113  58.9954913  32.3144083
  21.5960113  59.4914913  31.9994083  19.2160113  57.9174913  31.3044083
  19.2930113  57.7484913  30.4514083  19.9620113  58.3234913  31.5014083
  19.3370113  57.9524913  31.2074083  34.7750113  60.5574913  21.7444083
  34.8780113  60.4994913  20.8804083  35.5160113  60.2254913  22.0624083
  34.9000113  60.5004913  21.6634083  21.7700113  55.3274913  33.7154083
  21.6890113  54.4834913  33.9214083  21.4560113  55.3714913  32.9024083
  21.7120113  55.2094913  33.6254083  33.8770113  60.7034913  31.1004083
  33.8750113  59.8404913  31.2244083  33.9440113  61.0274913  31.9074083
  33.8870113  60.6234913  31.2374083  18.6130113  63.1434913  31.5284083
  18.9330113  63.3624913  30.7474083  18.5130113  62.2784913  31.4734083
  18.6450113  63.0484913  31.4054083  20.0690113  59.0794913  18.1464083
  19.3970113  59.0934913  18.7024083  20.1640113  58.2314913  17.9624083
  19.9840113  58.9564913  18.2014083  29.7560113  55.5034913  34.8824083
  29.8480113  56.2154913  35.3764083  29.1190113  55.0584913  35.2794083
  29.6750113  55.5424913  35.0144083  28.7500113  55.6934913  25.7364083
  28.0500113  56.2114913  25.6804083  28.7880113  55.3134913  24.9524083
  28.6520113  55.7144913  25.6124083  24.0570113  67.7844913  19.2604083
  24.4980113  67.8644913  20.0084083  23.2520113  67.5684913  19.5184083
  24.0030113  67.7644913  19.4094083  32.3480113  56.2094913  28.5364083
  33.2030113  56.3084913  28.6814083  31.9790113  56.7624913  29.1014083
  32.4200113  56.3064913  28.6414083  23.3760113  62.4354913  32.9134083
  22.9800113  63.2094913  32.9884083  22.9700113  62.0624913  32.2374083
  23.2580113  62.4944913  32.8244083  32.6520113  61.4894913  27.0274083
  33.3180113  62.0304913  27.1874083  32.3070113  61.8004913  26.2884083
  32.6990113  61.6154913  26.9424083  21.3860113  66.8544913  19.8614083
  21.1420113  66.5474913  20.6414083  21.3530113  66.1514913  19.3454083
  21.3450113  66.7054913  19.9004083  24.2050113  65.0994913  18.6044083
  23.3870113  64.8314913  18.7444083  24.1770113  65.9514913  18.7894083
  24.0800113  65.1864913  18.6524083  23.8050113  55.4124913  30.3634083
  22.9410113  55.4964913  30.4434083  24.0250113  54.8984913  31.0324083
  23.7100113  55.3494913  30.4744083  35.8230113  54.0474913  31.6924083
  35.7710113  54.0034913  32.5624083  36.5100113  53.5444913  31.5024083
  35.9170113  53.9674913  31.7924083  27.9080113  56.1604913  28.7374083
  27.1710113  55.7064913  28.8504083  28.4790113  55.7584913  29.2604083
  27.8830113  56.0334913  28.8314083  30.6400113  67.0084913  30.5254083
  30.8460113  67.3094913  31.3174083  30.5790113  67.7304913  30.0404083
  30.6610113  67.1594913  30.5704083  25.4110113  60.4894913  33.9414083
  25.0890113  59.9134913  33.3714083  25.0520113  61.2444913  33.6954083
  25.3110113  60.5154913  33.8214083  26.2070113  53.7414913  18.5684083
  26.2850113  53.9884913  17.7354083  25.4640113  54.1184913  18.8264083
  26.1090113  53.8334913  18.4834083  35.4520113  65.6474913  29.9834083
  35.4200113  64.7854913  29.8484083  34.7590113  65.9494913  29.5494083
  35.3450113  65.5644913  29.8994083  21.0250113  55.4954913  31.0114083
  20.6820113  54.7284913  30.7774083  20.3300113  56.0194913  31.0754083
  20.8720113  55.4594913  30.9864083  30.0710113  54.3514913  27.9884083
  30.7410113  54.8954913  28.1154083  29.5680113  54.7754913  27.4154083
  30.0960113  54.4944913  27.9224083  29.4300113  60.1594913  25.4814083
  29.9810113  59.5524913  25.7814083  29.0050113  60.4224913  26.1964083
  29.4490113  60.1084913  25.6304083  19.6780113  58.8094913  24.9674083
  19.3100113  59.1114913  25.6984083  20.2120113  58.1804913  25.2514083
  19.7020113  58.7614913  25.1174083  19.3660113  67.2174913  32.4784083
  18.7920113  67.6334913  32.9874083  20.0990113  67.6824913  32.5734083
  19.3900113  67.3474913  32.5674083  31.4000113  61.9904913  22.0434083
  31.4680113  61.1404913  22.2244083  30.5770113  62.0764913  21.7654083
  31.2880113  61.8774913  22.0294083  25.3190113  62.8814913  20.9814083
  25.4190113  63.0204913  20.1264083  26.1370113  62.8214913  21.2774083
  25.4540113  62.8924913  20.8984083  34.6740113  63.3634913  35.1944083
  35.3080113  63.1934913  35.7684083  35.0910113  63.7664913  34.5424083
  34.8290113  63.3984913  35.1834083  30.5540113  67.2104913  20.7834083
  30.3030113  67.0824913  21.6094083  30.2370113  66.5154913  20.3624083
  30.4700113  67.0894913  20.8434083  35.2990113  57.9274913  35.9324083
  35.1030113  58.5714913  36.4874083  34.5770113  57.4374913  35.9244083
  35.1640113  57.9504913  36.0134083  35.1980113  58.8684913  28.9034083
  34.3650113  59.1184913  28.8314083  35.1420113  58.0284913  29.1324083
  35.0670113  58.7814913  28.9264083  24.4580113  55.8564913  34.0974083
  24.6920113  55.2804913  33.4844083  23.6160113  55.6754913  34.2384083
  24.3680113  55.7444913  34.0274083  32.0850113  63.4744913  36.5494083
  32.9560113  63.4384913  36.5134083  31.8660113  63.8944913  35.8174083
  32.1820113  63.5304913  36.4364083  27.4400113  65.4184913  20.2134083
  28.1570113  65.0714913  19.8574083  27.4060113  66.2184913  19.8654083
  27.5410113  65.4854913  20.1094083  28.8490113  54.0594913   4.4521673
  28.6040113  54.5474913   3.7721673  29.7120113  53.9864913   4.3521673
  28.9400113  54.1204913   4.3371673  28.6580113  60.9754913   9.1231673
  28.1340113  61.5714913   9.4861673  29.0550113  60.6074913   9.8071673
  28.6390113  61.0094913   9.2781673  18.5270113  65.1154913   4.5791673
  18.0860113  65.2334913   5.3221673  18.2440113  64.3404913   4.2941673
  18.4200113  65.0184913   4.6471673  31.3290113  62.0424913   5.7991673
  31.4090113  62.0464913   4.9301673  30.7450113  61.4104913   5.9481673
  31.2540113  61.9494913   5.6931673  21.0360113  65.8114913   3.6581673
  21.6440113  65.6414913   4.2611673  20.2850113  65.6714913   4.0791673
  21.0150113  65.7654913   3.8091673  25.3180113  55.1464913   3.6071673
  25.2480113  55.8234913   3.0611673  26.0590113  54.7584913   3.3581673
  25.4170113  55.1894913   3.4891673  18.4670113  67.8504913  10.8341673
  18.5960113  67.5704913  11.6501673  17.8570113  67.3094913  10.5251673
  18.3960113  67.7294913  10.9091673  25.0410113  65.3754913  15.9011673
  24.8050113  65.3724913  16.7411673  24.2930113  65.2274913  15.4771673
  24.8950113  65.3524913  15.9621673  19.9130113  62.3714913   5.0361673
  19.4510113  61.9794913   4.4091673  20.6130113  61.8584913   5.1281673
  19.9480113  62.2384913   4.9571673  24.4210113  57.9814913  10.3831673
  25.0990113  57.9994913   9.8341673  24.3760113  57.1454913  10.6281673
  24.5140113  57.8604913  10.3381673  21.9140113  60.4714913   5.0591673
  22.7310113  60.2844913   5.3021673  21.4370113  59.8574913   5.4551673
  21.9640113  60.3534913   5.1541673  26.1180113  66.4524913   7.6691673
  26.4660113  65.6534913   7.6991673  26.7830113  66.9564913   7.4141673
  26.2680113  66.4084913   7.6361673  26.1750113  65.9014913   3.8801673
  26.5060113  65.2574913   4.3661673  26.4150113  65.6904913   3.0691673
  26.2590113  65.7754913   3.8321673  28.1430113  60.0324913  15.2191673
  27.2950113  59.9334913  15.0411673  28.1720113  60.7774913  15.6731673
  28.0220113  60.1284913  15.2601673  22.5110113  55.5654913   4.3251673
  22.2150113  56.0664913   3.6751673  23.3780113  55.6434913   4.2681673
  22.5950113  55.6514913   4.2211673  32.7010113  52.9924913  14.3331673
  32.5430113  53.7614913  13.9511673  31.9290113  52.7724913  14.6771673
  32.5630113  53.0734913  14.3281673  25.4900113  54.7074913   6.5481673
  25.5630113  55.5674913   6.6771673  25.4520113  54.6324913   5.6801673
  25.4950113  54.8234913   6.4391673  18.3690113  60.1324913   8.0491673
  18.1130113  60.9634913   7.9741673  17.7050113  59.7494913   8.4661673
  18.2330113  60.1984913   8.1001673  24.1190113  67.6864913   3.4291673
  23.5400113  67.4114913   4.0211673  24.7430113  67.0774913   3.4541673
  24.1260113  67.5564913   3.5201673  21.3980113  54.9494913   8.5401673
  20.8770113  54.3214913   8.2321673  21.9890113  54.5124913   9.0111673
  21.4090113  54.7914913   8.5641673  24.7040113  57.0824913  17.8381673
  24.8210113  56.6284913  17.1021673  24.9920113  57.8804913  17.6351673
  24.7640113  57.1334913  17.6991673  35.5570113  57.6064913   5.1421673
  35.2110113  58.2844913   5.5681673  34.9210113  57.0084913   5.1581673
  35.4120113  57.6184913   5.2071673  20.4370113  56.6794913  16.8221673
  19.6590113  56.2894913  16.7501673  20.9280113  56.2674913  16.2311673
  20.3940113  56.5604913  16.7241673  20.6420113  66.9994913   7.3801673
  21.0650113  66.6434913   6.7061673  20.9660113  66.5774913   8.0721673
  20.7520113  66.8844913   7.3831673  27.0860113  54.3224913  15.9901673
  27.2640113  53.5134913  15.7151673  26.9430113  54.7634913  15.2511673
  27.0910113  54.2684913  15.8401673  27.6800113  59.2484913   4.7631673
  27.9670113  59.0164913   3.9731673  28.4120113  59.3274913   5.2321673
  27.8300113  59.2254913   4.7161673  35.2320113  55.9294913  10.5111673
  35.9890113  56.0014913  10.0831673  35.2950113  55.1564913  10.9101673
  35.3530113  55.8264913  10.5061673  17.7850113  57.2274913  14.4081673
  17.7810113  57.8144913  15.0541673  18.3790113  57.5394913  13.8511673
  17.8720113  57.3604913  14.4211673  30.1230113  67.5614913  14.9501673
  30.0890113  67.9434913  15.7341673  30.9770113  67.5194913  14.7791673
  30.2440113  67.6114913  15.0411673  18.7220113  56.8224913   3.3231673
  18.6080113  55.9584913   3.3541673  18.2470113  57.1164913   3.9931673
  18.6350113  56.7384913   3.4261673  28.0260113  58.0304913   2.0681673
  27.5180113  57.3684913   1.8141673  28.0780113  58.5344913   1.3581673
  27.9590113  58.0074913   1.9261673  28.0260113  54.9714913   1.9591673
  27.5710113  54.5694913   1.3331673  28.7990113  55.1264913   1.5841673
  28.0730113  54.9354913   1.8111673  26.6240113  57.3384913   6.4811673
  26.6980113  57.9064913   5.8231673  26.7450113  57.8304913   7.1911673
  26.6520113  57.4954913   6.4891673  31.8490113  67.1734913   4.8931673
  32.5500113  66.6914913   5.0821673  31.1890113  66.6044913   4.9381673
  31.8550113  67.0184913   4.9271673  21.2320113  53.1614913   4.8291673
  21.7680113  53.8494913   4.8191673  21.2350113  52.8874913   4.0011673
  21.3110113  53.2224913   4.7051673  24.1880113  63.5944913   8.8541673
  24.3600113  63.3844913   9.6831673  23.5330113  63.0604913   8.6381673
  24.1170113  63.4844913   8.9451673  30.4160113  57.5084913  12.3691673
  30.3210113  57.8274913  13.1751673  29.8230113  56.8694913  12.3311673
  30.3140113  57.4604913  12.4831673  24.9380113  63.5324913  11.4441673
  24.9910113  64.3794913  11.6461673  24.6530113  63.1624913  12.1811673
  24.9040113  63.6024913  11.5821673  31.1150113  64.2274913  10.5741673
  30.6010113  63.8154913  11.1451673  30.9890113  65.0714913  10.7551673
  31.0210113  64.2914913  10.6851673  31.6720113  53.4524913   5.2051673
  31.7210113  53.1344913   6.0161673  31.9950113  52.8084913   4.7121673
  31.7270113  53.3104913   5.2521673  34.1360113  57.6884913  13.5131673
  34.9080113  57.4634913  13.8501673  33.6610113  57.9054913  14.2131673
  34.1800113  57.6874913  13.6661673  21.6800113  56.9714913   6.4831673
  21.9520113  56.5414913   5.7751673  21.5040113  56.3354913   7.0541673
  21.6940113  56.8144913   6.4631673  21.5040113  64.3984913   6.0321673
  22.3550113  64.3184913   5.8591673  21.1470113  63.7164913   5.6201673
  21.5770113  64.2854913   5.9451673  19.8210113  58.0734913   9.5651673
  20.6640113  58.2934913   9.5221673  19.4320113  58.6464913   9.0341673
  19.8880113  58.1904913   9.4801673  23.8720113  64.4054913   4.2671673
  24.5850113  64.9004913   4.3571673  24.0940113  63.8384913   3.6411673
  24.0100113  64.3944913   4.1881673  18.0280113  66.0484913   7.5871673
  17.3610113  66.5364913   7.8631673  18.7080113  66.5934913   7.6161673
  18.0300113  66.2004913   7.6321673  25.6750113  59.7584913  17.6831673
  25.1910113  60.3354913  18.1251673  25.6470113  60.0534913  16.8621673
  25.5990113  59.8874913  17.6271673  36.7730113  60.4424913  12.2951673
  36.9880113  59.6424913  12.0191673  35.9230113  60.5024913  12.1061673
  36.6790113  60.3334913  12.2261673  18.0940113  62.7324913   2.6901673
  17.9090113  61.8934913   2.8421673  18.7530113  62.6964913   2.1201673
  18.1640113  62.6034913   2.6281673  34.4520113  55.6224913   2.0181673
  35.1980113  55.2154913   2.2171673  34.7150113  56.3374913   1.5931673
  34.6010113  55.6684913   1.9851673  18.2660113  66.8964913   2.2651673
  18.8180113  67.4654913   2.6291673  18.0340113  66.3814913   2.9301673
  18.3130113  66.9044913   2.4171673  22.4700113  65.8964913   9.3541673
  22.9370113  66.1854913  10.0321673  23.0420113  65.4184913   8.9001673
  22.6240113  65.8684913   9.3871673  30.9060113  57.9104913   7.0911673
  31.2500113  58.0624913   7.8781673  30.4530113  57.1724913   7.2041673
  30.8900113  57.8234913   7.2241673  19.0360113  63.5664913   7.8981673
  19.4670113  63.4374913   7.1511673  18.8310113  64.4144913   7.8721673
  19.0690113  63.6724913   7.7841673  23.1200113  67.0824913   6.1801673
  23.2460113  67.9254913   6.3671673  23.7880113  66.6834913   6.5761673
  23.2380113  67.1484913   6.2661673  21.2500113  60.5654913  16.0421673
  20.7140113  60.0594913  16.5101673  21.2700113  60.1754913  15.2621673
  21.1730113  60.4324913  15.9961673  21.9020113  61.7924913   7.7811673
  21.1210113  61.7334913   7.3981673  21.9740113  61.0404913   8.2181673
  21.7970113  61.6734913   7.7891673  22.3320113  61.5294913  11.2491673
  22.3570113  60.8544913  10.6981673  21.6860113  62.0254913  10.9371673
  22.2410113  61.5024913  11.1221673  32.2270113  59.2424913   9.6451673
  31.5650113  59.5704913  10.1081673  32.4140113  59.8764913   9.0761673
  32.1570113  59.3844913   9.6291673  28.8720113  55.1484913  13.0741673
  29.0210113  54.3234913  12.8311673  29.2510113  55.2034913  13.8581673
  28.9500113  55.0344913  13.1541673  30.4200113  57.2114913   3.1561673
  30.9100113  57.9284913   3.0791673  29.6300113  57.4724913   2.8931673
  30.3760113  57.3554913   3.1061673  20.1310113  62.8844913  16.8081673
  20.0940113  63.3854913  16.0941673  20.4620113  62.1324913  16.5131673
  20.1740113  62.8464913  16.6591673  31.7340113  65.0894913  15.0661673
  32.2180113  65.8074913  15.1641673  32.1280113  64.6624913  14.4151673
  31.8640113  65.1324913  14.9841673  26.0300113  67.9344913  16.2431673
  26.3840113  67.7564913  17.0201673  25.5940113  67.2054913  16.0441673
  26.0180113  67.8004913  16.3291673  27.0020113  58.6814913   8.8811673
  27.4820113  59.3804913   9.0891673  27.3750113  58.0344913   9.3321673
  27.1280113  58.6894913   8.9781673  34.1630113  65.7204913   5.1361673
  34.5190113  65.3704913   5.8511673  34.1550113  65.0594913   4.5661673
  34.2150113  65.5704913   5.1571673  30.2210113  65.6374913   8.3801673
  29.4240113  65.8614913   8.6541673  30.4790113  65.0434913   8.9651673
  30.1410113  65.5824913   8.5071673  33.4810113  63.6354913  13.2261673
  33.5360113  63.7604913  12.3641673  34.2340113  63.9554913  13.5281673
  33.6000113  63.7004913  13.1431673  34.5130113  53.9334913  16.2131673
  33.8760113  53.5334913  15.7711673  34.5390113  53.5024913  16.9711673
  34.4230113  53.8114913  16.2591673  20.9060113  62.4994913   2.0591673
  21.2300113  61.7204913   1.8371673  21.5520113  62.8674913   2.5141673
  21.0490113  62.4384913   2.0931673  29.2120113  63.4414913  12.8261673
  29.0570113  64.0514913  13.4301673  29.7460113  62.8834913  13.2321673
  29.2680113  63.4494913  12.9751673  17.9030113  54.1604913   3.0271673
  18.0320113  53.4524913   2.5351673  17.5360113  53.8424913   3.7521673
  17.8680113  54.0084913   3.0621673  27.5960113  61.8414913   3.4841673
  27.6550113  62.4914913   4.0631673  27.4070113  61.1454913   3.9751673
  27.5770113  61.8344913   3.6421673  32.8220113  66.1704913   9.3531673
  32.3430113  66.4684913   8.6871673  32.4660113  65.3944913   9.5311673
  32.6990113  66.0994913   9.2811673  26.8190113  63.8884913   7.9151673
  25.9720113  63.6944913   7.9961673  27.1430113  63.7234913   8.7081673
  26.7410113  63.8354913   8.0441673  20.6670113  63.5814913  10.2311673
  21.3890113  64.0694913  10.1941673  20.3970113  63.5514913   9.4021673
  20.7340113  63.6494913  10.1031673  23.8970113  58.7524913   6.9661673
  24.7430113  58.5624913   7.0641673  23.5270113  57.9754913   6.8281673
  23.9670113  58.6094913   6.9601673  18.7180113  60.0904913   3.6211673
  19.2070113  59.7984913   4.2821673  18.8470113  59.4974913   2.9941673
  18.8090113  59.9594913   3.6261673  33.7530113  63.1124913  10.4721673
  33.7460113  62.3364913  10.8701673  32.9120113  63.3464913  10.4651673
  33.6280113  63.0324913  10.5301673  20.0620113  64.6334913  14.5091673
  19.6410113  64.1154913  13.9481673  19.7100113  65.4194913  14.3661673
  19.9480113  64.6734913  14.4051673  35.0090113  63.1834913   7.9091673
  34.7230113  63.5844913   8.6291673  35.8690113  63.1214913   8.0361673
  35.0940113  63.2334913   8.0341673  24.6980113  59.9854913   1.8171673
  24.9700113  60.8114913   1.8841673  23.8350113  60.0604913   1.7211673
  24.6110113  60.1184913   1.8121673  32.6710113  57.1074913  16.4491673
  32.1460113  57.5664913  16.9731673  32.3100113  56.3124913  16.4431673
  32.5400113  57.0574913  16.5251673  18.1780113  55.9554913   8.3531673
  18.2220113  56.2994913   7.5521673  18.9330113  56.1924913   8.7201673
  18.2960113  56.0414913   8.2891673  31.1630113  60.6764913  16.5251673
  31.2360113  60.7804913  17.3881673  30.5290113  61.2344913  16.3041673
  31.0800113  60.7744913  16.6201673  33.4310113  60.9954913  14.8901673
  33.7500113  61.7814913  15.0931673  33.0610113  60.7254913  15.6331673
  33.4240113  61.0714913  15.0301673  33.2270113  59.2534913   6.0791673
  32.4820113  58.9304913   6.3971673  33.2290113  60.0794913   6.3591673
  33.1170113  59.3274913   6.1671673  36.1290113  61.5374913  17.6251673
  36.0770113  61.1964913  16.8241673  36.8660113  62.0044913  17.6031673
  36.2300113  61.5564913  17.5031673  35.6670113  65.2134913  13.8311673
  36.2950113  64.6644913  13.5751673  35.6060113  65.7784913  13.1691673
  35.7510113  65.2164913  13.6951673  24.8010113  66.4444913  11.1271673
  24.5030113  67.0364913  11.6941673  24.8560113  66.8864913  10.3781673
  24.7650113  66.5974913  11.1001673  22.7800113  65.3944913  14.5251673
  21.9740113  65.1044913  14.6921673  22.6910113  66.2624913  14.5311673
  22.6480113  65.4794913  14.5501673  32.1390113  55.5834913  13.5401673
  32.8830113  56.0354913  13.4771673  31.5730113  56.0534913  13.0711673
  32.1660113  55.7204913  13.4621673  27.3170113  62.8674913  10.6181673
  27.7930113  63.2414913  11.2461673  26.4940113  63.0014913  10.8771673
  27.2660113  62.9424913  10.7491673  24.0270113  58.4704913  13.3591673
  24.1880113  57.7264913  13.7861673  23.9820113  58.2214913  12.5241673
  24.0440113  58.3234913  13.2991673  33.4240113  53.5634913  11.2101673
  33.1440113  54.3884913  11.1661673  34.1400113  53.6164913  11.7061673
  33.4890113  53.6934913  11.2771673  25.7790113  54.2784913  13.2391673
  26.4840113  54.5984913  12.8371673  26.0200113  53.4714913  13.4661673
  25.9180113  54.2064913  13.2131673  29.0730113  65.1224913  16.2241673
  29.8300113  65.4084913  15.8981673  28.5260113  65.1744913  15.5461673
  29.1040113  65.1724913  16.0751673  22.2880113  59.3314913   9.3001673
  22.7280113  59.2284913   8.5541673  22.8330113  59.0184913   9.9051673
  22.4330113  59.2704913   9.2791673  30.3040113  58.4334913  14.8921673
  29.6560113  58.9034913  15.2401673  30.8690113  58.3444913  15.5511673
  30.2920113  58.4894913  15.0411673  29.9920113  59.9704913  11.1901673
  30.2940113  60.3904913  11.8931673  30.0280113  59.1304913  11.4221673
  30.0420113  59.9084913  11.3281673  32.5400113  59.4174913   3.4421673
  32.7470113  59.2164913   4.2661673  33.2960113  59.6854913   3.1001673
  32.6820113  59.4274913   3.5131673  25.8350113  54.3164913   9.3471673
  25.0090113  54.1674913   9.5841673  25.7950113  54.3514913   8.4761673
  25.7070113  54.2994913   9.2531673  33.5620113  55.5004913   4.9161673
  32.8480113  55.0294913   5.0871673  33.4000113  55.8414913   4.1301673
  33.4330113  55.4814913   4.8251673  34.0050113  63.4444913   3.2961673
  34.4810113  62.7154913   3.2481673  33.1840113  63.1584913   3.2201673
  33.9540113  63.2944913   3.2771673  27.4760113  65.3564913  14.1351673
  26.6810113  65.2924913  14.4861673  27.5470113  66.2034913  13.9401673
  27.3690113  65.4714913  14.1581673  18.4000113  54.7144913  15.3821673
  18.2600113  55.5094913  15.0511673  17.6140113  54.4714913  15.6711673
  18.2630113  54.7964913  15.3761673  21.4640113  57.4584913   2.6071673
  21.5900113  57.1294913   1.8091673  20.6520113  57.2094913   2.8061673
  21.3630113  57.3734913   2.5191673  30.2210113  64.6114913   5.6511673
  30.2970113  64.9524913   6.4501673  30.3900113  63.7644913   5.7721673
  30.2570113  64.5364913   5.7871673  27.7430113  63.8854913   5.2161673
  27.4450113  63.5704913   5.9731673  28.4380113  64.3584913   5.4511673
  27.8020113  63.9084913   5.3631673  36.1410113  60.6124913  15.0541673
  35.2860113  60.4904913  15.1801673  36.2940113  60.2174913  14.2911673
  36.0370113  60.5354913  14.9601673  30.6540113  61.2774913  13.6301673
  30.3990113  60.5584913  14.0521673  31.4750113  61.3934913  13.9001673
  30.7380113  61.1884913  13.7321673  28.5880113  62.4674913  16.8171673
  28.9110113  63.1534913  16.3851673  27.8840113  62.7904913  17.2191673
  28.5310113  62.6164913  16.8121673  28.3730113  65.9314913  10.6761673
  27.6790113  66.3334913  11.0191673  29.0500113  66.3644913  11.0151673
  28.3700113  66.0544913  10.7771673  21.4410113  59.4694913  13.0231673
  21.8160113  60.0884913  12.5361673  22.1150113  58.9954913  13.3081673
  21.5960113  59.4914913  12.9931673  19.2160113  57.9174913  12.2981673
  19.2930113  57.7484913  11.4451673  19.9620113  58.3234913  12.4951673
  19.3370113  57.9524913  12.2011673  34.7750113  60.5574913   2.7381673
  34.8780113  60.4994913   1.8741673  35.5160113  60.2254913   3.0561673
  34.9000113  60.5004913   2.6571673  21.7700113  55.3274913  14.7091673
  21.6890113  54.4834913  14.9151673  21.4560113  55.3714913  13.8961673
  21.7120113  55.2094913  14.6191673  33.8770113  60.7034913  12.0941673
  33.8750113  59.8404913  12.2181673  33.9440113  61.0274913  12.9011673
  33.8870113  60.6234913  12.2311673  18.6130113  63.1434913  12.5221673
  18.9330113  63.3624913  11.7411673  18.5130113  62.2784913  12.4671673
  18.6450113  63.0484913  12.3991673  29.7560113  55.5034913  15.8761673
  29.8480113  56.2154913  16.3701673  29.1190113  55.0584913  16.2731673
  29.6750113  55.5424913  16.0081673  28.7500113  55.6934913   6.7301673
  28.0500113  56.2114913   6.6741673  28.7880113  55.3134913   5.9461673
  28.6520113  55.7144913   6.6061673  32.3480113  56.2094913   9.5301673
  33.2030113  56.3084913   9.6751673  31.9790113  56.7624913  10.0951673
  32.4200113  56.3064913   9.6351673  23.3760113  62.4354913  13.9071673
  22.9800113  63.2094913  13.9821673  22.9700113  62.0624913  13.2311673
  23.2580113  62.4944913  13.8181673  32.6520113  61.4894913   8.0211673
  33.3180113  62.0304913   8.1811673  32.3070113  61.8004913   7.2821673
  32.6990113  61.6154913   7.9361673  23.8050113  55.4124913  11.3571673
  22.9410113  55.4964913  11.4371673  24.0250113  54.8984913  12.0261673
  23.7100113  55.3494913  11.4681673  35.8230113  54.0474913  12.6861673
  35.7710113  54.0034913  13.5561673  36.5100113  53.5444913  12.4961673
  35.9170113  53.9674913  12.7861673  27.9080113  56.1604913   9.7311673
  27.1710113  55.7064913   9.8441673  28.4790113  55.7584913  10.2541673
  27.8830113  56.0334913   9.8251673  30.6400113  67.0084913  11.5191673
  30.8460113  67.3094913  12.3111673  30.5790113  67.7304913  11.0341673
  30.6610113  67.1594913  11.5641673  25.4110113  60.4894913  14.9351673
  25.0890113  59.9134913  14.3651673  25.0520113  61.2444913  14.6891673
  25.3110113  60.5154913  14.8151673  35.4520113  65.6474913  10.9771673
  35.4200113  64.7854913  10.8421673  34.7590113  65.9494913  10.5431673
  35.3450113  65.5644913  10.8931673  21.0250113  55.4954913  12.0051673
  20.6820113  54.7284913  11.7711673  20.3300113  56.0194913  12.0691673
  20.8720113  55.4594913  11.9801673  30.0710113  54.3514913   8.9821673
  30.7410113  54.8954913   9.1091673  29.5680113  54.7754913   8.4091673
  30.0960113  54.4944913   8.9161673  29.4300113  60.1594913   6.4751673
  29.9810113  59.5524913   6.7751673  29.0050113  60.4224913   7.1901673
  29.4490113  60.1084913   6.6241673  19.6780113  58.8094913   5.9611673
  19.3100113  59.1114913   6.6921673  20.2120113  58.1804913   6.2451673
  19.7020113  58.7614913   6.1111673  19.3660113  67.2174913  13.4721673
  18.7920113  67.6334913  13.9811673  20.0990113  67.6824913  13.5671673
  19.3900113  67.3474913  13.5611673  31.4000113  61.9904913   3.0371673
  31.4680113  61.1404913   3.2181673  30.5770113  62.0764913   2.7591673
  31.2880113  61.8774913   3.0231673  34.6740113  63.3634913  16.1881673
  35.3080113  63.1934913  16.7621673  35.0910113  63.7664913  15.5361673
  34.8290113  63.3984913  16.1771673  30.5540113  67.2104913   1.7771673
  30.3030113  67.0824913   2.6031673  30.2370113  66.5154913   1.3561673
  30.4700113  67.0894913   1.8371673  35.2990113  57.9274913  16.9261673
  35.1030113  58.5714913  17.4811673  34.5770113  57.4374913  16.9181673
  35.1640113  57.9504913  17.0071673  35.1980113  58.8684913   9.8971673
  34.3650113  59.1184913   9.8251673  35.1420113  58.0284913  10.1261673
  35.0670113  58.7814913   9.9201673  24.4580113  55.8564913  15.0911673
  24.6920113  55.2804913  14.4781673  23.6160113  55.6754913  15.2321673
  24.3680113  55.7444913  15.0211673  32.0850113  63.4744913  17.5431673
  32.9560113  63.4384913  17.5071673  31.8660113  63.8944913  16.8111673
  32.1820113  63.5304913  17.4301673  28.8490113  35.5813833  80.4771313
  28.6040113  36.0693833  79.7971313  29.7120113  35.5083833  80.3771313
  28.9400113  35.6423833  80.3621313  28.6580113  42.4973833  85.1481313
  28.1340113  43.0933833  85.5111313  29.0550113  42.1293833  85.8321313
  28.6390113  42.5313833  85.3031313  18.5270113  46.6373833  80.6041313
  18.0860113  46.7553833  81.3471313  18.2440113  45.8623833  80.3191313
  18.4200113  46.5403833  80.6721313  34.8020113  49.9383833  78.1191313
  35.5030113  49.4193833  78.1151313  34.2150113  49.4933833  77.6501313
  34.8190113  49.7953833  78.0491313  18.2700113  40.4293833  77.1111313
  17.4920113  40.5913833  76.7511313  18.3090113  39.5583833  77.1331313
  18.1610113  40.3243833  77.0611313  21.4090113  45.6923833  75.7831313
  21.0170113  45.3213833  75.0971313  21.3290113  45.0943833  76.4121313
  21.3390113  45.5493833  75.7741313  31.3290113  43.5643833  81.8241313
  31.4090113  43.5683833  80.9551313  30.7450113  42.9323833  81.9731313
  31.2540113  43.4713833  81.7181313  21.0360113  47.3333833  79.6831313
  21.6440113  47.1633833  80.2861313  20.2850113  47.1933833  80.1041313
  21.0150113  47.2873833  79.8341313  25.3180113  36.6683833  79.6321313
  25.2480113  37.3453833  79.0861313  26.0590113  36.2803833  79.3831313
  25.4170113  36.7113833  79.5141313  19.9270113  50.4243833  75.7601313
  20.3940113  50.5083833  75.0281313  20.3820113  49.8463833  76.2291313
  20.0630113  50.3513833  75.7211313  18.4670113  49.3723833  86.8591313
  18.5960113  49.0923833  87.6751313  17.8570113  48.8313833  86.5501313
  18.3960113  49.2513833  86.9341313  19.9130113  43.8933833  81.0611313
  19.4510113  43.5013833  80.4341313  20.6130113  43.3803833  81.1531313
  19.9480113  43.7603833  80.9821313  24.4210113  39.5033833  86.4081313
  25.0990113  39.5213833  85.8591313  24.3760113  38.6673833  86.6531313
  24.5140113  39.3823833  86.3631313  25.0230113  50.0893833  89.1891313
  25.1610113  50.8493833  88.7821313  25.8140113  49.7243833  89.2161313
  25.1600113  50.1483833  89.1331313  21.9140113  41.9933833  81.0841313
  22.7310113  41.8063833  81.3271313  21.4370113  41.3793833  81.4801313
  21.9640113  41.8753833  81.1791313  26.1180113  47.9743833  83.6941313
  26.4660113  47.1753833  83.7241313  26.7830113  48.4783833  83.4391313
  26.2680113  47.9303833  83.6611313  26.1750113  47.4233833  79.9051313
  26.5060113  46.7793833  80.3911313  26.4150113  47.2123833  79.0941313
  26.2590113  47.2973833  79.8571313  22.5110113  37.0873833  80.3501313
  22.2150113  37.5883833  79.7001313  23.3780113  37.1653833  80.2931313
  22.5950113  37.1733833  80.2461313  32.7010113  34.5143833  90.3581313
  32.5430113  35.2833833  89.9761313  31.9290113  34.2943833  90.7021313
  32.5630113  34.5953833  90.3531313  25.4900113  36.2293833  82.5731313
  25.5630113  37.0893833  82.7021313  25.4520113  36.1543833  81.7051313
  25.4950113  36.3453833  82.4641313  30.1630113  39.1553833  74.8721313
  29.7130113  39.8363833  75.1791313  30.2770113  38.6513833  75.5751313
  30.1140113  39.1813833  75.0211313  18.3690113  41.6543833  84.0741313
  18.1130113  42.4853833  83.9991313  17.7050113  41.2713833  84.4911313
  18.2330113  41.7203833  84.1251313  18.2790113  51.3643833  81.9741313
  17.6870113  51.9223833  81.6611313  18.7050113  51.0953833  81.2621313
  18.2550113  51.4063833  81.8231313  24.1190113  49.2083833  79.4541313
  23.5400113  48.9333833  80.0461313  24.7430113  48.5993833  79.4791313
  24.1260113  49.0783833  79.5451313  30.2620113  51.4963833  76.9761313
  30.9890113  51.9683833  77.0781313  30.4910113  50.7023833  77.2561313
  30.4040113  51.4493833  77.0331313  28.4300113  51.8883833  78.9661313
  28.6440113  52.4153833  79.6281313  29.1970113  51.7143833  78.5871313
  28.5750113  51.9403833  79.0081313  21.3980113  36.4713833  84.5651313
  20.8770113  35.8433833  84.2571313  21.9890113  36.0343833  85.0361313
  21.4090113  36.3133833  84.5891313  19.8240113  50.0343833  79.9051313
  20.4800113  49.4593833  79.9201313  20.2130113  50.7833833  79.6841313
  19.9790113  50.0593833  79.8751313  35.5570113  39.1283833  81.1671313
  35.2110113  39.8063833  81.5931313  34.9210113  38.5303833  81.1831313
  35.4120113  39.1403833  81.2321313  30.8690113  51.8983833  87.2711313
  31.6130113  52.3543833  87.2611313  30.7480113  51.6843833  86.4341313
  30.9610113  51.9343833  87.1461313  20.6420113  48.5213833  83.4051313
  21.0650113  48.1653833  82.7311313  20.9660113  48.0993833  84.0971313
  20.7520113  48.4063833  83.4081313  23.8730113  51.3733833  82.7011313
  24.7170113  51.4773833  82.5061313  23.5760113  52.1913833  82.7691313
  23.9540113  51.5093833  82.6821313  27.6800113  40.7703833  80.7881313
  27.9670113  40.5383833  79.9981313  28.4120113  40.8493833  81.2571313
  27.8300113  40.7473833  80.7411313  28.4020113  41.1093833  75.9091313
  28.6830113  41.8973833  76.1581313  27.6260113  41.2743833  75.5461313
  28.3290113  41.2503833  75.8921313  32.4430113  53.0833833  77.3761313
  33.1080113  52.9353833  76.8311313  32.8030113  53.0003833  78.1661313
  32.5950113  53.0493833  77.4121313  22.8710113  52.5923833  88.4411313
  23.1630113  52.5253833  89.2611313  22.2450113  51.9873833  88.3961313
  22.8220113  52.4933833  88.5561313  35.2320113  37.4513833  86.5361313
  35.9890113  37.5233833  86.1081313  35.2950113  36.6783833  86.9351313
  35.3530113  37.3483833  86.5311313  17.7850113  38.7493833  90.4331313
  17.7810113  39.3363833  91.0791313  18.3790113  39.0613833  89.8761313
  17.8720113  38.8823833  90.4461313  27.2610113  49.2803833  75.7251313
  27.0800113  49.8253833  76.3821313  28.0270113  49.5703833  75.4241313
  27.3470113  49.4043833  75.7781313  30.7680113  37.1763833  76.7791313
  31.3080113  36.4943833  76.8551313  30.8300113  37.5743833  77.5531313
  30.8570113  37.1343833  76.9051313  18.7220113  38.3443833  79.3481313
  18.6080113  37.4803833  79.3791313  18.2470113  38.6383833  80.0181313
  18.6350113  38.2603833  79.4511313  20.8640113  50.7543833  87.5631313
  20.1660113  50.2463833  87.6891313  21.1240113  50.5493833  86.7551313
  20.7990113  50.6493833  87.4621313  28.0260113  39.5523833  78.0931313
  27.5180113  38.8903833  77.8391313  28.0780113  40.0563833  77.3831313
  27.9590113  39.5293833  77.9511313  28.5750113  52.2473833  88.4731313
  29.3430113  52.1673833  88.0671313  27.9920113  52.1263833  87.8351313
  28.6020113  52.2173833  88.3191313  28.0260113  36.4933833  77.9841313
  27.5710113  36.0913833  77.3581313  28.7990113  36.6483833  77.6091313
  28.0730113  36.4573833  77.8361313  34.8520113  52.8503833  81.3741313
  34.3970113  53.5673833  81.5751313  34.2380113  52.2793833  81.1321313
  34.6940113  52.8723833  81.3681313  26.6240113  38.8603833  82.5061313
  26.6980113  39.4283833  81.8481313  26.7450113  39.3523833  83.2161313
  26.6520113  39.0173833  82.5141313  31.8490113  48.6953833  80.9181313
  32.5500113  48.2133833  81.1071313  31.1890113  48.1263833  80.9631313
  31.8550113  48.5403833  80.9521313  22.2250113  49.6053833  90.1301313
  23.0660113  49.6683833  89.9081313  22.1880113  50.0023833  90.9061313
  22.3440113  49.6733833  90.2121313  21.2320113  34.6833833  80.8541313
  21.7680113  35.3713833  80.8441313  21.2350113  34.4093833  80.0261313
  21.3110113  34.7443833  80.7301313  24.1880113  45.1163833  84.8791313
  24.3600113  44.9063833  85.7081313  23.5330113  44.5823833  84.6631313
  24.1170113  45.0063833  84.9701313  30.4160113  39.0303833  88.3941313
  30.3210113  39.3493833  89.2001313  29.8230113  38.3913833  88.3561313
  30.3140113  38.9823833  88.5081313  24.9380113  45.0543833  87.4691313
  24.9910113  45.9013833  87.6711313  24.6530113  44.6843833  88.2061313
  24.9040113  45.1243833  87.6071313  31.1150113  45.7493833  86.5991313
  30.6010113  45.3373833  87.1701313  30.9890113  46.5933833  86.7801313
  31.0210113  45.8133833  86.7101313  31.6720113  34.9743833  81.2301313
  31.7210113  34.6563833  82.0411313  31.9950113  34.3303833  80.7371313
  31.7270113  34.8323833  81.2771313  34.1360113  39.2103833  89.5381313
  34.9080113  38.9853833  89.8751313  33.6610113  39.4273833  90.2381313
  34.1800113  39.2093833  89.6911313  21.6800113  38.4933833  82.5081313
  21.9520113  38.0633833  81.8001313  21.5040113  37.8573833  83.0791313
  21.6940113  38.3363833  82.4881313  34.3680113  46.1883833  76.7261313
  34.4870113  45.9013833  77.5411313  35.1750113  46.2093833  76.3961313
  34.5040113  46.1493833  76.7981313  21.5040113  45.9203833  82.0571313
  22.3550113  45.8403833  81.8841313  21.1470113  45.2383833  81.6451313
  21.5770113  45.8073833  81.9701313  20.2710113  52.6453833  83.2941313
  19.5980113  52.1473833  83.0491313  20.6740113  52.8303833  82.5431313
  20.2310113  52.5993833  83.1471313  19.8210113  39.5953833  85.5901313
  20.6640113  39.8153833  85.5471313  19.4320113  40.1683833  85.0591313
  19.8880113  39.7123833  85.5051313  32.2630113  42.7253833  76.3111313
  32.0430113  43.4563833  75.8891313  31.8150113  42.7763833  77.0581313
  32.1640113  42.8403833  76.3591313  23.8720113  45.9273833  80.2921313
  24.5850113  46.4223833  80.3821313  24.0940113  45.3603833  79.6661313
  24.0100113  45.9163833  80.2131313  36.4500113  37.5863833  75.7641313
  35.7880113  37.0183833  75.7871313  36.2570113  38.0983833  75.0841313
  36.3240113  37.5783833  75.6671313  18.0280113  47.5703833  83.6121313
  17.3610113  48.0583833  83.8881313  18.7080113  48.1153833  83.6411313
  18.0300113  47.7223833  83.6571313  36.7730113  41.9643833  88.3201313
  36.9880113  41.1643833  88.0441313  35.9230113  42.0243833  88.1311313
  36.6790113  41.8553833  88.2511313  18.0940113  44.2543833  78.7151313
  17.9090113  43.4153833  78.8671313  18.7530113  44.2183833  78.1451313
  18.1640113  44.1253833  78.6531313  34.4520113  37.1443833  78.0431313
  35.1980113  36.7373833  78.2421313  34.7150113  37.8593833  77.6181313
  34.6010113  37.1903833  78.0101313  28.3950113  49.6303833  82.6191313
  27.8720113  50.2643833  82.3261313  28.7050113  49.2663833  81.8901313
  28.3630113  49.6703833  82.4681313  18.2660113  48.4183833  78.2901313
  18.8180113  48.9873833  78.6541313  18.0340113  47.9033833  78.9551313
  18.3130113  48.4263833  78.4421313  22.4700113  47.4183833  85.3791313
  22.9370113  47.7073833  86.0571313  23.0420113  46.9403833  84.9251313
  22.6240113  47.3903833  85.4121313  30.9060113  39.4323833  83.1161313
  31.2500113  39.5843833  83.9031313  30.4530113  38.6943833  83.2291313
  30.8900113  39.3453833  83.2491313  18.0960113  46.8673833  75.9181313
  18.8520113  46.4353833  75.9761313  18.1110113  47.3993833  76.6091313
  18.2100113  46.8823833  76.0291313  19.0360113  45.0883833  83.9231313
  19.4670113  44.9593833  83.1761313  18.8310113  45.9363833  83.8971313
  19.0690113  45.1943833  83.8091313  25.3820113  38.6523833  77.5731313
  25.3800113  38.5353833  76.7081313  25.2010113  39.5003833  77.6651313
  25.3550113  38.7603833  77.4591313  34.4360113  51.0793833  89.0701313
  33.7650113  51.5933833  89.2881313  34.4990113  51.1793833  88.2061313
  34.3460113  51.1703833  88.9751313  23.1200113  48.6043833  82.2051313
  23.2460113  49.4473833  82.3921313  23.7880113  48.2053833  82.6011313
  23.2380113  48.6703833  82.2911313  21.7350113  41.4843833  77.2071313
  21.6070113  41.0363833  77.9451313  21.1530113  41.1423833  76.6551313
  21.6300113  41.3673833  77.2351313  21.9020113  43.3143833  83.8061313
  21.1210113  43.2553833  83.4231313  21.9740113  42.5623833  84.2431313
  21.7970113  43.1953833  83.8141313  22.3320113  43.0513833  87.2741313
  22.3570113  42.3763833  86.7231313  21.6860113  43.5473833  86.9621313
  22.2410113  43.0243833  87.1471313  32.2270113  40.7643833  85.6701313
  31.5650113  41.0923833  86.1331313  32.4140113  41.3983833  85.1011313
  32.1570113  40.9063833  85.6541313  26.4320113  51.8283833  86.6661313
  26.1550113  51.1873833  86.1431313  26.2240113  52.5543833  86.2281313
  26.3610113  51.8413833  86.5241313  28.8720113  36.6703833  89.0991313
  29.0210113  35.8453833  88.8561313  29.2510113  36.7253833  89.8831313
  28.9500113  36.5563833  89.1791313  30.4200113  38.7333833  79.1811313
  30.9100113  39.4503833  79.1041313  29.6300113  38.9943833  78.9181313
  30.3760113  38.8773833  79.1311313  31.7340113  46.6113833  91.0911313
  32.2180113  47.3293833  91.1891313  32.1280113  46.1843833  90.4401313
  31.8640113  46.6543833  91.0091313  27.0020113  40.2033833  84.9061313
  27.4820113  40.9023833  85.1141313  27.3750113  39.5563833  85.3571313
  27.1280113  40.2113833  85.0031313  29.1910113  43.3723833  77.1801313
  29.1830113  44.0943833  76.6901313  28.5520113  43.5073833  77.7571313
  29.0960113  43.4993833  77.1931313  34.1630113  47.2423833  81.1611313
  34.5190113  46.8923833  81.8761313  34.1550113  46.5813833  80.5911313
  34.2150113  47.0923833  81.1821313  30.2080113  50.3083833  85.0051313
  29.6050113  50.0123833  84.4481313  30.7530113  50.7603833  84.4961313
  30.1990113  50.3313833  84.8471313  30.2210113  47.1593833  84.4051313
  29.4240113  47.3833833  84.6791313  30.4790113  46.5653833  84.9901313
  30.1410113  47.1043833  84.5321313  24.1130113  51.9713833  78.8531313
  23.9660113  51.1953833  79.2241313  24.8020113  51.8243833  78.3381313
  24.1930113  51.8343833  78.8321313  23.7840113  35.7143833  76.8411313
  23.8810113  35.6073833  77.7021313  23.0760113  36.2203833  76.7761313
  23.6940113  35.7733833  76.9591313  26.4050113  51.4873833  77.2551313
  27.0270113  51.6503833  77.8451313  26.4410113  52.1783833  76.7231313
  26.5020113  51.6133833  77.2641313  33.4810113  45.1573833  89.2511313
  33.5360113  45.2823833  88.3891313  34.2340113  45.4773833  89.5531313
  33.6000113  45.2223833  89.1681313  20.9060113  44.0213833  78.0841313
  21.2300113  43.2423833  77.8621313  21.5520113  44.3893833  78.5391313
  21.0490113  43.9603833  78.1181313  29.2120113  44.9633833  88.8511313
  29.0570113  45.5733833  89.4551313  29.7460113  44.4053833  89.2571313
  29.2680113  44.9713833  89.0001313  17.9030113  35.6823833  79.0521313
  18.0320113  34.9743833  78.5601313  17.5360113  35.3643833  79.7771313
  17.8680113  35.5303833  79.0871313  27.5960113  43.3633833  79.5091313
  27.6550113  44.0133833  80.0881313  27.4070113  42.6673833  80.0001313
  27.5770113  43.3563833  79.6671313  32.8220113  47.6923833  85.3781313
  32.3430113  47.9903833  84.7121313  32.4660113  46.9163833  85.5561313
  32.6990113  47.6213833  85.3061313  22.0920113  37.8803833  76.0211313
  21.5810113  37.9333833  75.3151313  22.8760113  38.1203833  75.7251313
  22.1320113  37.9233833  75.8731313  26.8190113  45.4103833  83.9401313
  25.9720113  45.2163833  84.0211313  27.1430113  45.2453833  84.7331313
  26.7410113  45.3573833  84.0691313  23.5710113  52.1403833  74.8261313
  24.0100113  51.4433833  75.1141313  23.7780113  52.7643833  75.3991313
  23.6670113  52.1293833  74.9531313  20.6670113  45.1033833  86.2561313
  21.3890113  45.5913833  86.2191313  20.3970113  45.0733833  85.4271313
  20.7340113  45.1713833  86.1281313  23.8970113  40.2743833  82.9911313
  24.7430113  40.0843833  83.0891313  23.5270113  39.4973833  82.8531313
  23.9670113  40.1313833  82.9851313  36.5140113  51.8583833  77.3181313
  37.2080113  51.3913833  77.0701313  35.9750113  51.2603833  77.6551313
  36.5370113  51.7003833  77.3311313  18.7180113  41.6123833  79.6461313
  19.2070113  41.3203833  80.3071313  18.8470113  41.0193833  79.0191313
  18.8090113  41.4813833  79.6511313  33.7530113  44.6343833  86.4971313
  33.7460113  43.8583833  86.8951313  32.9120113  44.8683833  86.4901313
  33.6280113  44.5543833  86.5551313  23.2430113  43.0463833  75.1321313
  22.6330113  42.6413833  75.6061313  22.8570113  43.1643833  74.3591313
  23.0960113  43.0033833  75.0881313  20.0620113  46.1553833  90.5341313
  19.6410113  45.6373833  89.9731313  19.7100113  46.9413833  90.3911313
  19.9480113  46.1953833  90.4301313  35.0090113  44.7053833  83.9341313
  34.7230113  45.1063833  84.6541313  35.8690113  44.6433833  84.0611313
  35.0940113  44.7553833  84.0591313  24.6980113  41.5073833  77.8421313
  24.9700113  42.3333833  77.9091313  23.8350113  41.5823833  77.7461313
  24.6110113  41.6403833  77.8371313  18.1780113  37.4773833  84.3781313
  18.2220113  37.8213833  83.5771313  18.9330113  37.7143833  84.7451313
  18.2960113  37.5633833  84.3141313  36.1400113  50.3383833  84.4631313
  36.4300113  50.5953833  83.6821313  36.8350113  50.4343833  84.9821313
  36.2860113  50.3903833  84.4241313  32.7450113  48.9413833  76.4451313
  33.0790113  48.1353833  76.4801313  31.9900113  48.8693833  76.8751313
  32.6830113  48.8113833  76.5141313  33.2270113  40.7753833  82.1041313
  32.4820113  40.4523833  82.4221313  33.2290113  41.6013833  82.3841313
  33.1170113  40.8493833  82.1921313  35.6670113  46.7353833  89.8561313
  36.2950113  46.1863833  89.6001313  35.6060113  47.3003833  89.1941313
  35.7510113  46.7383833  89.7201313  30.1190113  46.8163833  75.8481313
  30.8030113  46.3023833  75.6791313  29.7020113  46.8623833  75.0831313
  30.1580113  46.7473833  75.7101313  24.8010113  47.9663833  87.1521313
  24.5030113  48.5583833  87.7191313  24.8560113  48.4083833  86.4031313
  24.7650113  48.1193833  87.1251313  22.7800113  46.9163833  90.5501313
  21.9740113  46.6263833  90.7171313  22.6910113  47.7843833  90.5561313
  22.6480113  47.0013833  90.5751313  32.1390113  37.1053833  89.5651313
  32.8830113  37.5573833  89.5021313  31.5730113  37.5753833  89.0961313
  32.1660113  37.2423833  89.4871313  27.3170113  44.3893833  86.6431313
  27.7930113  44.7633833  87.2711313  26.4940113  44.5233833  86.9021313
  27.2660113  44.4643833  86.7741313  24.0270113  39.9923833  89.3841313
  24.1880113  39.2483833  89.8111313  23.9820113  39.7433833  88.5491313
  24.0440113  39.8453833  89.3241313  26.5810113  51.7823833  81.8711313
  27.1270113  52.4613833  81.9251313  26.2310113  51.8643833  81.0761313
  26.6100113  51.8953833  81.7611313  33.4240113  35.0853833  87.2351313
  33.1440113  35.9103833  87.1911313  34.1400113  35.1383833  87.7311313
  33.4890113  35.2153833  87.3021313  25.7790113  35.8003833  89.2641313
  26.4840113  36.1203833  88.8621313  26.0200113  34.9933833  89.4911313
  25.9180113  35.7283833  89.2381313  24.7640113  50.0103833  85.2601313
  24.1400113  50.5923833  85.0781313  25.0120113  49.7243833  84.4741313
  24.7080113  50.0543833  85.1171313  34.8450113  41.3403833  76.0921313
  35.2230113  42.0173833  75.6921313  34.0030113  41.5643833  76.1231313
  34.7760113  41.4733833  76.0371313  26.3580113  44.7863833  75.1751313
  25.5530113  44.6093833  74.8901313  26.3250113  45.6373833  75.3671313
  26.2340113  44.8853833  75.1621313  22.2880113  40.8533833  85.3251313
  22.7280113  40.7503833  84.5791313  22.8330113  40.5403833  85.9301313
  22.4330113  40.7923833  85.3041313  29.9920113  41.4923833  87.2151313
  30.2940113  41.9123833  87.9181313  30.0280113  40.6523833  87.4471313
  30.0420113  41.4303833  87.3531313  32.5400113  40.9393833  79.4671313
  32.7470113  40.7383833  80.2911313  33.2960113  41.2073833  79.1251313
  32.6820113  40.9493833  79.5381313  25.8350113  35.8383833  85.3721313
  25.0090113  35.6893833  85.6091313  25.7950113  35.8733833  84.5011313
  25.7070113  35.8213833  85.2781313  33.5620113  37.0223833  80.9411313
  32.8480113  36.5513833  81.1121313  33.4000113  37.3633833  80.1551313
  33.4330113  37.0033833  80.8501313  34.0050113  44.9663833  79.3211313
  34.4810113  44.2373833  79.2731313  33.1840113  44.6803833  79.2451313
  33.9540113  44.8163833  79.3021313  27.4760113  46.8783833  90.1601313
  26.6810113  46.8143833  90.5111313  27.5470113  47.7253833  89.9651313
  27.3690113  46.9933833  90.1831313  23.3060113  53.0853833  85.4771313
  23.3170113  53.1443833  86.3471313  22.8810113  52.3383833  85.3271313
  23.2450113  52.9833833  85.5831313  21.4640113  38.9803833  78.6321313
  21.5900113  38.6513833  77.8341313  20.6520113  38.7313833  78.8311313
  21.3630113  38.8953833  78.5441313  30.2210113  46.1333833  81.6761313
  30.2970113  46.4743833  82.4751313  30.3900113  45.2863833  81.7971313
  30.2570113  46.0583833  81.8121313  27.7430113  45.4073833  81.2411313
  27.4450113  45.0923833  81.9981313  28.4380113  45.8803833  81.4761313
  27.8020113  45.4303833  81.3881313  27.9650113  49.5253833  89.2681313
  28.6520113  49.4113833  89.7931313  28.0990113  50.3163833  88.9241313
  28.0860113  49.6253833  89.2951313  36.1410113  42.1343833  91.0791313
  35.2860113  42.0123833  91.2051313  36.2940113  41.7393833  90.3161313
  36.0370113  42.0573833  90.9851313  30.6540113  42.7993833  89.6551313
  30.3990113  42.0803833  90.0771313  31.4750113  42.9153833  89.9251313
  30.7380113  42.7103833  89.7571313  20.0700113  52.5833833  90.9191313
  19.4160113  52.0143833  91.0171313  19.6950113  53.3563833  91.0701313
  19.9180113  52.6133833  90.9561313  31.6720113  52.3633833  83.7711313
  31.2210113  53.0063833  84.1501313  32.3800113  52.2843833  84.2761313
  31.7100113  52.4463833  83.9021313  28.3730113  47.4533833  86.7011313
  27.6790113  47.8553833  87.0441313  29.0500113  47.8863833  87.0401313
  28.3700113  47.5763833  86.8021313  21.4410113  40.9913833  89.0481313
  21.8160113  41.6103833  88.5611313  22.1150113  40.5173833  89.3331313
  21.5960113  41.0133833  89.0181313  19.2160113  39.4393833  88.3231313
  19.2930113  39.2703833  87.4701313  19.9620113  39.8453833  88.5201313
  19.3370113  39.4743833  88.2261313  34.7750113  42.0793833  78.7631313
  34.8780113  42.0213833  77.8991313  35.5160113  41.7473833  79.0811313
  34.9000113  42.0223833  78.6821313  21.7700113  36.8493833  90.7341313
  21.6890113  36.0053833  90.9401313  21.4560113  36.8933833  89.9211313
  21.7120113  36.7313833  90.6441313  28.6950113  49.0443833  79.8701313
  28.4900113  49.8773833  79.7111313  27.9200113  48.6623833  79.9921313
  28.5500113  49.1113833  79.8651313  33.8770113  42.2253833  88.1191313
  33.8750113  41.3623833  88.2431313  33.9440113  42.5493833  88.9261313
  33.8870113  42.1453833  88.2561313  18.6130113  44.6653833  88.5471313
  18.9330113  44.8843833  87.7661313  18.5130113  43.8003833  88.4921313
  18.6450113  44.5703833  88.4241313  20.0690113  40.6013833  75.1651313
  19.3970113  40.6153833  75.7211313  20.1640113  39.7533833  74.9811313
  19.9840113  40.4783833  75.2201313  28.7500113  37.2153833  82.7551313
  28.0500113  37.7333833  82.6991313  28.7880113  36.8353833  81.9711313
  28.6520113  37.2363833  82.6311313  24.0570113  49.3063833  76.2791313
  24.4980113  49.3863833  77.0271313  23.2520113  49.0903833  76.5371313
  24.0030113  49.2863833  76.4281313  32.3480113  37.7313833  85.5551313
  33.2030113  37.8303833  85.7001313  31.9790113  38.2843833  86.1201313
  32.4200113  37.8283833  85.6601313  23.3760113  43.9573833  89.9321313
  22.9800113  44.7313833  90.0071313  22.9700113  43.5843833  89.2561313
  23.2580113  44.0163833  89.8431313  32.6520113  43.0113833  84.0461313
  33.3180113  43.5523833  84.2061313  32.3070113  43.3223833  83.3071313
  32.6990113  43.1373833  83.9611313  32.9650113  51.0773833  79.8531313
  32.7910113  50.4233833  80.4031313  33.6780113  50.8063833  79.4301313
  33.0450113  50.9403833  79.8721313  21.3860113  48.3763833  76.8801313
  21.1420113  48.0693833  77.6601313  21.3530113  47.6733833  76.3641313
  21.3450113  48.2273833  76.9191313  24.2050113  46.6213833  75.6231313
  23.3870113  46.3533833  75.7631313  24.1770113  47.4733833  75.8081313
  24.0800113  46.7083833  75.6711313  23.8050113  36.9343833  87.3821313
  22.9410113  37.0183833  87.4621313  24.0250113  36.4203833  88.0511313
  23.7100113  36.8713833  87.4931313  35.8230113  35.5693833  88.7111313
  35.7710113  35.5253833  89.5811313  36.5100113  35.0663833  88.5211313
  35.9170113  35.4893833  88.8111313  27.9080113  37.6823833  85.7561313
  27.1710113  37.2283833  85.8691313  28.4790113  37.2803833  86.2791313
  27.8830113  37.5553833  85.8501313  30.6400113  48.5303833  87.5441313
  30.8460113  48.8313833  88.3361313  30.5790113  49.2523833  87.0591313
  30.6610113  48.6813833  87.5891313  25.4110113  42.0113833  90.9601313
  25.0890113  41.4353833  90.3901313  25.0520113  42.7663833  90.7141313
  25.3110113  42.0373833  90.8401313  26.2070113  35.2633833  75.5871313
  26.2850113  35.5103833  74.7541313  25.4640113  35.6403833  75.8451313
  26.1090113  35.3553833  75.5021313  35.4520113  47.1693833  87.0021313
  35.4200113  46.3073833  86.8671313  34.7590113  47.4713833  86.5681313
  35.3450113  47.0863833  86.9181313  33.5570113  50.4293833  85.7991313
  34.0840113  50.3463833  85.1081313  33.1660113  49.6513833  85.8531313
  33.5770113  50.3023833  85.7051313  21.0250113  37.0173833  88.0301313
  20.6820113  36.2503833  87.7961313  20.3300113  37.5413833  88.0941313
  20.8720113  36.9813833  88.0051313  30.0710113  35.8733833  85.0071313
  30.7410113  36.4173833  85.1341313  29.5680113  36.2973833  84.4341313
  30.0960113  36.0163833  84.9411313  29.4300113  41.6813833  82.5001313
  29.9810113  41.0743833  82.8001313  29.0050113  41.9443833  83.2151313
  29.4490113  41.6303833  82.6491313  19.6780113  40.3313833  81.9861313
  19.3100113  40.6333833  82.7171313  20.2120113  39.7023833  82.2701313
  19.7020113  40.2833833  82.1361313  19.3660113  48.7393833  89.4971313
  18.7920113  49.1553833  90.0061313  20.0990113  49.2043833  89.5921313
  19.3900113  48.8693833  89.5861313  31.4000113  43.5123833  79.0621313
  31.4680113  42.6623833  79.2431313  30.5770113  43.5983833  78.7841313
  31.2880113  43.3993833  79.0481313  21.1520113  52.0063833  78.2721313
  21.0070113  52.1623833  77.4261313  22.0180113  52.0853833  78.3501313
  21.2590113  52.0413833  78.1591313  25.3190113  44.4033833  78.0001313
  25.4190113  44.5423833  77.1451313  26.1370113  44.3433833  78.2961313
  25.4540113  44.4143833  77.9171313  34.4790113  52.4673833  75.4801313
  35.1160113  52.3333833  76.0611313  34.1380113  51.6733833  75.3631313
  34.5230113  52.3303833  75.5481313  30.5540113  48.7323833  77.8021313
  30.3030113  48.6043833  78.6281313  30.2370113  48.0373833  77.3811313
  30.4700113  48.6113833  77.8621313  35.1980113  40.3903833  85.9221313
  34.3650113  40.6403833  85.8501313  35.1420113  39.5503833  86.1511313
  35.0670113  40.3033833  85.9451313  24.4580113  37.3783833  91.1161313
  24.6920113  36.8023833  90.5031313  23.6160113  37.1973833  91.2571313
  24.3680113  37.2663833  91.0461313  21.8390113  50.8213833  84.7491313
  21.7600113  50.0113833  84.4331313  21.3950113  51.3083833  84.1771313
  21.7620113  50.7733833  84.6181313  27.4400113  46.9403833  77.2321313
  28.1570113  46.5933833  76.8761313  27.4060113  47.7403833  76.8841313
  27.5410113  47.0073833  77.1281313  19.4110113  53.0653833  88.3301313
  19.9040113  53.0093833  89.0481313  19.5990113  52.3323833  87.8951313
  19.5120113  52.9483833  88.3721313  28.8490113  35.5813833  61.4708903
  28.6040113  36.0693833  60.7908903  29.7120113  35.5083833  61.3708903
  28.9400113  35.6423833  61.3558903  28.6580113  42.4973833  66.1418903
  28.1340113  43.0933833  66.5048903  29.0550113  42.1293833  66.8258903
  28.6390113  42.5313833  66.2968903  18.5270113  46.6373833  61.5978903
  18.0860113  46.7553833  62.3408903  18.2440113  45.8623833  61.3128903
  18.4200113  46.5403833  61.6658903  34.8020113  49.9383833  59.1128903
  35.5030113  49.4193833  59.1088903  34.2150113  49.4933833  58.6438903
  34.8190113  49.7953833  59.0428903  18.2700113  40.4293833  58.1048903
  17.4920113  40.5913833  57.7448903  18.3090113  39.5583833  58.1268903
  18.1610113  40.3243833  58.0548903  21.4090113  45.6923833  56.7768903
  21.0170113  45.3213833  56.0908903  21.3290113  45.0943833  57.4058903
  21.3390113  45.5493833  56.7678903  31.3290113  43.5643833  62.8178903
  31.4090113  43.5683833  61.9488903  30.7450113  42.9323833  62.9668903
  31.2540113  43.4713833  62.7118903  21.0360113  47.3333833  60.6768903
  21.6440113  47.1633833  61.2798903  20.2850113  47.1933833  61.0978903
  21.0150113  47.2873833  60.8278903  25.3180113  36.6683833  60.6258903
  25.2480113  37.3453833  60.0798903  26.0590113  36.2803833  60.3768903
  25.4170113  36.7113833  60.5078903  19.9270113  50.4243833  56.7538903
  20.3940113  50.5083833  56.0218903  20.3820113  49.8463833  57.2228903
  20.0630113  50.3513833  56.7148903  18.4670113  49.3723833  67.8528903
  18.5960113  49.0923833  68.6688903  17.8570113  48.8313833  67.5438903
  18.3960113  49.2513833  67.9278903  25.0410113  46.8973833  72.9198903
  24.8050113  46.8943833  73.7598903  24.2930113  46.7493833  72.4958903
  24.8950113  46.8743833  72.9808903  19.9130113  43.8933833  62.0548903
  19.4510113  43.5013833  61.4278903  20.6130113  43.3803833  62.1468903
  19.9480113  43.7603833  61.9758903  24.4210113  39.5033833  67.4018903
  25.0990113  39.5213833  66.8528903  24.3760113  38.6673833  67.6468903
  24.5140113  39.3823833  67.3568903  25.0230113  50.0893833  70.1828903
  25.1610113  50.8493833  69.7758903  25.8140113  49.7243833  70.2098903
  25.1600113  50.1483833  70.1268903  21.9140113  41.9933833  62.0778903
  22.7310113  41.8063833  62.3208903  21.4370113  41.3793833  62.4738903
  21.9640113  41.8753833  62.1728903  26.1180113  47.9743833  64.6878903
  26.4660113  47.1753833  64.7178903  26.7830113  48.4783833  64.4328903
  26.2680113  47.9303833  64.6548903  26.1750113  47.4233833  60.8988903
  26.5060113  46.7793833  61.3848903  26.4150113  47.2123833  60.0878903
  26.2590113  47.2973833  60.8508903  28.1430113  41.5543833  72.2378903
  27.2950113  41.4553833  72.0598903  28.1720113  42.2993833  72.6918903
  28.0220113  41.6503833  72.2788903  22.5110113  37.0873833  61.3438903
  22.2150113  37.5883833  60.6938903  23.3780113  37.1653833  61.2868903
  22.5950113  37.1733833  61.2398903  32.7010113  34.5143833  71.3518903
  32.5430113  35.2833833  70.9698903  31.9290113  34.2943833  71.6958903
  32.5630113  34.5953833  71.3468903  25.4900113  36.2293833  63.5668903
  25.5630113  37.0893833  63.6958903  25.4520113  36.1543833  62.6988903
  25.4950113  36.3453833  63.4578903  18.3690113  41.6543833  65.0678903
  18.1130113  42.4853833  64.9928903  17.7050113  41.2713833  65.4848903
  18.2330113  41.7203833  65.1188903  18.2790113  51.3643833  62.9678903
  17.6870113  51.9223833  62.6548903  18.7050113  51.0953833  62.2558903
  18.2550113  51.4063833  62.8168903  24.1190113  49.2083833  60.4478903
  23.5400113  48.9333833  61.0398903  24.7430113  48.5993833  60.4728903
  24.1260113  49.0783833  60.5388903  30.2620113  51.4963833  57.9698903
  30.9890113  51.9683833  58.0718903  30.4910113  50.7023833  58.2498903
  30.4040113  51.4493833  58.0268903  28.4300113  51.8883833  59.9598903
  28.6440113  52.4153833  60.6218903  29.1970113  51.7143833  59.5808903
  28.5750113  51.9403833  60.0018903  21.3980113  36.4713833  65.5588903
  20.8770113  35.8433833  65.2508903  21.9890113  36.0343833  66.0298903
  21.4090113  36.3133833  65.5828903  24.7040113  38.6043833  74.8568903
  24.8210113  38.1503833  74.1208903  24.9920113  39.4023833  74.6538903
  24.7640113  38.6553833  74.7178903  19.8240113  50.0343833  60.8988903
  20.4800113  49.4593833  60.9138903  20.2130113  50.7833833  60.6778903
  19.9790113  50.0593833  60.8688903  35.5570113  39.1283833  62.1608903
  35.2110113  39.8063833  62.5868903  34.9210113  38.5303833  62.1768903
  35.4120113  39.1403833  62.2258903  30.8690113  51.8983833  68.2648903
  31.6130113  52.3543833  68.2548903  30.7480113  51.6843833  67.4278903
  30.9610113  51.9343833  68.1398903  20.4370113  38.2013833  73.8408903
  19.6590113  37.8113833  73.7688903  20.9280113  37.7893833  73.2498903
  20.3940113  38.0823833  73.7428903  20.6420113  48.5213833  64.3988903
  21.0650113  48.1653833  63.7248903  20.9660113  48.0993833  65.0908903
  20.7520113  48.4063833  64.4018903  23.8730113  51.3733833  63.6948903
  24.7170113  51.4773833  63.4998903  23.5760113  52.1913833  63.7628903
  23.9540113  51.5093833  63.6758903  27.0860113  35.8443833  73.0088903
  27.2640113  35.0353833  72.7338903  26.9430113  36.2853833  72.2698903
  27.0910113  35.7903833  72.8588903  27.6800113  40.7703833  61.7818903
  27.9670113  40.5383833  60.9918903  28.4120113  40.8493833  62.2508903
  27.8300113  40.7473833  61.7348903  32.4430113  53.0833833  58.3698903
  33.1080113  52.9353833  57.8248903  32.8030113  53.0003833  59.1598903
  32.5950113  53.0493833  58.4058903  22.8710113  52.5923833  69.4348903
  23.1630113  52.5253833  70.2548903  22.2450113  51.9873833  69.3898903
  22.8220113  52.4933833  69.5498903  35.2320113  37.4513833  67.5298903
  35.9890113  37.5233833  67.1018903  35.2950113  36.6783833  67.9288903
  35.3530113  37.3483833  67.5248903  17.7850113  38.7493833  71.4268903
  17.7810113  39.3363833  72.0728903  18.3790113  39.0613833  70.8698903
  17.8720113  38.8823833  71.4398903  30.1230113  49.0833833  71.9688903
  30.0890113  49.4653833  72.7528903  30.9770113  49.0413833  71.7978903
  30.2440113  49.1333833  72.0598903  27.2610113  49.2803833  56.7188903
  27.0800113  49.8253833  57.3758903  28.0270113  49.5703833  56.4178903
  27.3470113  49.4043833  56.7718903  18.7220113  38.3443833  60.3418903
  18.6080113  37.4803833  60.3728903  18.2470113  38.6383833  61.0118903
  18.6350113  38.2603833  60.4448903  20.8640113  50.7543833  68.5568903
  20.1660113  50.2463833  68.6828903  21.1240113  50.5493833  67.7488903
  20.7990113  50.6493833  68.4558903  28.0260113  39.5523833  59.0868903
  27.5180113  38.8903833  58.8328903  28.0780113  40.0563833  58.3768903
  27.9590113  39.5293833  58.9448903  28.5750113  52.2473833  69.4668903
  29.3430113  52.1673833  69.0608903  27.9920113  52.1263833  68.8288903
  28.6020113  52.2173833  69.3128903  28.0260113  36.4933833  58.9778903
  27.5710113  36.0913833  58.3518903  28.7990113  36.6483833  58.6028903
  28.0730113  36.4573833  58.8298903  34.8520113  52.8503833  62.3678903
  34.3970113  53.5673833  62.5688903  34.2380113  52.2793833  62.1258903
  34.6940113  52.8723833  62.3618903  26.6240113  38.8603833  63.4998903
  26.6980113  39.4283833  62.8418903  26.7450113  39.3523833  64.2098903
  26.6520113  39.0173833  63.5078903  31.8490113  48.6953833  61.9118903
  32.5500113  48.2133833  62.1008903  31.1890113  48.1263833  61.9568903
  31.8550113  48.5403833  61.9458903  22.2250113  49.6053833  71.1238903
  23.0660113  49.6683833  70.9018903  22.1880113  50.0023833  71.8998903
  22.3440113  49.6733833  71.2058903  21.2320113  34.6833833  61.8478903
  21.7680113  35.3713833  61.8378903  21.2350113  34.4093833  61.0198903
  21.3110113  34.7443833  61.7238903  24.1880113  45.1163833  65.8728903
  24.3600113  44.9063833  66.7018903  23.5330113  44.5823833  65.6568903
  24.1170113  45.0063833  65.9638903  30.4160113  39.0303833  69.3878903
  30.3210113  39.3493833  70.1938903  29.8230113  38.3913833  69.3498903
  30.3140113  38.9823833  69.5018903  24.9380113  45.0543833  68.4628903
  24.9910113  45.9013833  68.6648903  24.6530113  44.6843833  69.1998903
  24.9040113  45.1243833  68.6008903  31.1150113  45.7493833  67.5928903
  30.6010113  45.3373833  68.1638903  30.9890113  46.5933833  67.7738903
  31.0210113  45.8133833  67.7038903  17.7590113  49.4253833  74.6738903
  18.5150113  49.7743833  74.9318903  17.9360113  48.5723833  74.6168903
  17.8970113  49.3503833  74.7038903  34.1360113  39.2103833  70.5318903
  34.9080113  38.9853833  70.8688903  33.6610113  39.4273833  71.2318903
  34.1800113  39.2093833  70.6848903  21.6800113  38.4933833  63.5018903
  21.9520113  38.0633833  62.7938903  21.5040113  37.8573833  64.0728903
  21.6940113  38.3363833  63.4818903  34.3680113  46.1883833  57.7198903
  34.4870113  45.9013833  58.5348903  35.1750113  46.2093833  57.3898903
  34.5040113  46.1493833  57.7918903  21.5040113  45.9203833  63.0508903
  22.3550113  45.8403833  62.8778903  21.1470113  45.2383833  62.6388903
  21.5770113  45.8073833  62.9638903  20.2710113  52.6453833  64.2878903
  19.5980113  52.1473833  64.0428903  20.6740113  52.8303833  63.5368903
  20.2310113  52.5993833  64.1408903  19.8210113  39.5953833  66.5838903
  20.6640113  39.8153833  66.5408903  19.4320113  40.1683833  66.0528903
  19.8880113  39.7123833  66.4988903  36.6020113  50.6973833  71.9738903
  35.9200113  51.0073833  71.5268903  36.2330113  50.2393833  72.6188903
  36.4460113  50.6753833  72.0028903  32.2630113  42.7253833  57.3048903
  32.0430113  43.4563833  56.8828903  31.8150113  42.7763833  58.0518903
  32.1640113  42.8403833  57.3528903  23.8720113  45.9273833  61.2858903
  24.5850113  46.4223833  61.3758903  24.0940113  45.3603833  60.6598903
  24.0100113  45.9163833  61.2068903  18.0280113  47.5703833  64.6058903
  17.3610113  48.0583833  64.8818903  18.7080113  48.1153833  64.6348903
  18.0300113  47.7223833  64.6508903  25.6750113  41.2803833  74.7018903
  25.1910113  41.8573833  75.1438903  25.6470113  41.5753833  73.8808903
  25.5990113  41.4093833  74.6458903  36.7730113  41.9643833  69.3138903
  36.9880113  41.1643833  69.0378903  35.9230113  42.0243833  69.1248903
  36.6790113  41.8553833  69.2448903  28.3950113  49.6303833  63.6128903
  27.8720113  50.2643833  63.3198903  28.7050113  49.2663833  62.8838903
  28.3630113  49.6703833  63.4618903  18.2660113  48.4183833  59.2838903
  18.8180113  48.9873833  59.6478903  18.0340113  47.9033833  59.9488903
  18.3130113  48.4263833  59.4358903  22.4700113  47.4183833  66.3728903
  22.9370113  47.7073833  67.0508903  23.0420113  46.9403833  65.9188903
  22.6240113  47.3903833  66.4058903  30.9060113  39.4323833  64.1098903
  31.2500113  39.5843833  64.8968903  30.4530113  38.6943833  64.2228903
  30.8900113  39.3453833  64.2428903  18.0960113  46.8673833  56.9118903
  18.8520113  46.4353833  56.9698903  18.1110113  47.3993833  57.6028903
  18.2100113  46.8823833  57.0228903  19.0360113  45.0883833  64.9168903
  19.4670113  44.9593833  64.1698903  18.8310113  45.9363833  64.8908903
  19.0690113  45.1943833  64.8028903  25.3820113  38.6523833  58.5668903
  25.3800113  38.5353833  57.7018903  25.2010113  39.5003833  58.6588903
  25.3550113  38.7603833  58.4528903  34.4360113  51.0793833  70.0638903
  33.7650113  51.5933833  70.2818903  34.4990113  51.1793833  69.1998903
  34.3460113  51.1703833  69.9688903  23.1200113  48.6043833  63.1988903
  23.2460113  49.4473833  63.3858903  23.7880113  48.2053833  63.5948903
  23.2380113  48.6703833  63.2848903  21.2500113  42.0873833  73.0608903
  20.7140113  41.5813833  73.5288903  21.2700113  41.6973833  72.2808903
  21.1730113  41.9543833  73.0148903  21.7350113  41.4843833  58.2008903
  21.6070113  41.0363833  58.9388903  21.1530113  41.1423833  57.6488903
  21.6300113  41.3673833  58.2288903  21.9020113  43.3143833  64.7998903
  21.1210113  43.2553833  64.4168903  21.9740113  42.5623833  65.2368903
  21.7970113  43.1953833  64.8078903  22.3320113  43.0513833  68.2678903
  22.3570113  42.3763833  67.7168903  21.6860113  43.5473833  67.9558903
  22.2410113  43.0243833  68.1408903  32.2270113  40.7643833  66.6638903
  31.5650113  41.0923833  67.1268903  32.4140113  41.3983833  66.0948903
  32.1570113  40.9063833  66.6478903  26.4320113  51.8283833  67.6598903
  26.1550113  51.1873833  67.1368903  26.2240113  52.5543833  67.2218903
  26.3610113  51.8413833  67.5178903  28.8720113  36.6703833  70.0928903
  29.0210113  35.8453833  69.8498903  29.2510113  36.7253833  70.8768903
  28.9500113  36.5563833  70.1728903  30.4200113  38.7333833  60.1748903
  30.9100113  39.4503833  60.0978903  29.6300113  38.9943833  59.9118903
  30.3760113  38.8773833  60.1248903  20.1310113  44.4063833  73.8268903
  20.0940113  44.9073833  73.1128903  20.4620113  43.6543833  73.5318903
  20.1740113  44.3683833  73.6778903  31.7340113  46.6113833  72.0848903
  32.2180113  47.3293833  72.1828903  32.1280113  46.1843833  71.4338903
  31.8640113  46.6543833  72.0028903  26.0300113  49.4563833  73.2618903
  26.3840113  49.2783833  74.0388903  25.5940113  48.7273833  73.0628903
  26.0180113  49.3223833  73.3478903  27.0020113  40.2033833  65.8998903
  27.4820113  40.9023833  66.1078903  27.3750113  39.5563833  66.3508903
  27.1280113  40.2113833  65.9968903  29.1910113  43.3723833  58.1738903
  29.1830113  44.0943833  57.6838903  28.5520113  43.5073833  58.7508903
  29.0960113  43.4993833  58.1868903  34.1630113  47.2423833  62.1548903
  34.5190113  46.8923833  62.8698903  34.1550113  46.5813833  61.5848903
  34.2150113  47.0923833  62.1758903  30.2080113  50.3083833  65.9988903
  29.6050113  50.0123833  65.4418903  30.7530113  50.7603833  65.4898903
  30.1990113  50.3313833  65.8408903  30.2210113  47.1593833  65.3988903
  29.4240113  47.3833833  65.6728903  30.4790113  46.5653833  65.9838903
  30.1410113  47.1043833  65.5258903  24.1130113  51.9713833  59.8468903
  23.9660113  51.1953833  60.2178903  24.8020113  51.8243833  59.3318903
  24.1930113  51.8343833  59.8258903  23.7840113  35.7143833  57.8348903
  23.8810113  35.6073833  58.6958903  23.0760113  36.2203833  57.7698903
  23.6940113  35.7733833  57.9528903  26.4050113  51.4873833  58.2488903
  27.0270113  51.6503833  58.8388903  26.4410113  52.1783833  57.7168903
  26.5020113  51.6133833  58.2578903  33.4810113  45.1573833  70.2448903
  33.5360113  45.2823833  69.3828903  34.2340113  45.4773833  70.5468903
  33.6000113  45.2223833  70.1618903  29.6720113  50.5063833  74.5218903
  29.8360113  50.7893833  75.3308903  29.9350113  51.1673833  74.0168903
  29.7350113  50.6463833  74.5668903  34.5130113  35.4553833  73.2318903
  33.8760113  35.0553833  72.7898903  34.5390113  35.0243833  73.9898903
  34.4230113  35.3333833  73.2778903  20.9060113  44.0213833  59.0778903
  21.2300113  43.2423833  58.8558903  21.5520113  44.3893833  59.5328903
  21.0490113  43.9603833  59.1118903  29.2120113  44.9633833  69.8448903
  29.0570113  45.5733833  70.4488903  29.7460113  44.4053833  70.2508903
  29.2680113  44.9713833  69.9938903  17.9030113  35.6823833  60.0458903
  18.0320113  34.9743833  59.5538903  17.5360113  35.3643833  60.7708903
  17.8680113  35.5303833  60.0808903  27.5960113  43.3633833  60.5028903
  27.6550113  44.0133833  61.0818903  27.4070113  42.6673833  60.9938903
  27.5770113  43.3563833  60.6608903  32.8220113  47.6923833  66.3718903
  32.3430113  47.9903833  65.7058903  32.4660113  46.9163833  66.5498903
  32.6990113  47.6213833  66.2998903  22.0920113  37.8803833  57.0148903
  21.5810113  37.9333833  56.3088903  22.8760113  38.1203833  56.7188903
  22.1320113  37.9233833  56.8668903  26.8190113  45.4103833  64.9338903
  25.9720113  45.2163833  65.0148903  27.1430113  45.2453833  65.7268903
  26.7410113  45.3573833  65.0628903  23.5710113  52.1403833  55.8198903
  24.0100113  51.4433833  56.1078903  23.7780113  52.7643833  56.3928903
  23.6670113  52.1293833  55.9468903  20.6670113  45.1033833  67.2498903
  21.3890113  45.5913833  67.2128903  20.3970113  45.0733833  66.4208903
  20.7340113  45.1713833  67.1218903  23.8970113  40.2743833  63.9848903
  24.7430113  40.0843833  64.0828903  23.5270113  39.4973833  63.8468903
  23.9670113  40.1313833  63.9788903  36.5140113  51.8583833  58.3118903
  37.2080113  51.3913833  58.0638903  35.9750113  51.2603833  58.6488903
  36.5370113  51.7003833  58.3248903  18.7180113  41.6123833  60.6398903
  19.2070113  41.3203833  61.3008903  18.8470113  41.0193833  60.0128903
  18.8090113  41.4813833  60.6448903  33.7530113  44.6343833  67.4908903
  33.7460113  43.8583833  67.8888903  32.9120113  44.8683833  67.4838903
  33.6280113  44.5543833  67.5488903  23.2430113  43.0463833  56.1258903
  22.6330113  42.6413833  56.5998903  22.8570113  43.1643833  55.3528903
  23.0960113  43.0033833  56.0818903  20.0620113  46.1553833  71.5278903
  19.6410113  45.6373833  70.9668903  19.7100113  46.9413833  71.3848903
  19.9480113  46.1953833  71.4238903  35.0090113  44.7053833  64.9278903
  34.7230113  45.1063833  65.6478903  35.8690113  44.6433833  65.0548903
  35.0940113  44.7553833  65.0528903  24.6980113  41.5073833  58.8358903
  24.9700113  42.3333833  58.9028903  23.8350113  41.5823833  58.7398903
  24.6110113  41.6403833  58.8308903  32.6710113  38.6293833  73.4678903
  32.1460113  39.0883833  73.9918903  32.3100113  37.8343833  73.4618903
  32.5400113  38.5793833  73.5438903  18.1780113  37.4773833  65.3718903
  18.2220113  37.8213833  64.5708903  18.9330113  37.7143833  65.7388903
  18.2960113  37.5633833  65.3078903  36.1400113  50.3383833  65.4568903
  36.4300113  50.5953833  64.6758903  36.8350113  50.4343833  65.9758903
  36.2860113  50.3903833  65.4178903  31.1630113  42.1983833  73.5438903
  31.2360113  42.3023833  74.4068903  30.5290113  42.7563833  73.3228903
  31.0800113  42.2963833  73.6388903  33.4310113  42.5173833  71.9088903
  33.7500113  43.3033833  72.1118903  33.0610113  42.2473833  72.6518903
  33.4240113  42.5933833  72.0488903  32.7450113  48.9413833  57.4388903
  33.0790113  48.1353833  57.4738903  31.9900113  48.8693833  57.8688903
  32.6830113  48.8113833  57.5078903  33.2270113  40.7753833  63.0978903
  32.4820113  40.4523833  63.4158903  33.2290113  41.6013833  63.3778903
  33.1170113  40.8493833  63.1858903  36.1290113  43.0593833  74.6438903
  36.0770113  42.7183833  73.8428903  36.8660113  43.5263833  74.6218903
  36.2300113  43.0783833  74.5218903  35.6670113  46.7353833  70.8498903
  36.2950113  46.1863833  70.5938903  35.6060113  47.3003833  70.1878903
  35.7510113  46.7383833  70.7138903  30.1190113  46.8163833  56.8418903
  30.8030113  46.3023833  56.6728903  29.7020113  46.8623833  56.0768903
  30.1580113  46.7473833  56.7038903  24.8010113  47.9663833  68.1458903
  24.5030113  48.5583833  68.7128903  24.8560113  48.4083833  67.3968903
  24.7650113  48.1193833  68.1188903  22.7800113  46.9163833  71.5438903
  21.9740113  46.6263833  71.7108903  22.6910113  47.7843833  71.5498903
  22.6480113  47.0013833  71.5688903  32.1390113  37.1053833  70.5588903
  32.8830113  37.5573833  70.4958903  31.5730113  37.5753833  70.0898903
  32.1660113  37.2423833  70.4808903  27.3170113  44.3893833  67.6368903
  27.7930113  44.7633833  68.2648903  26.4940113  44.5233833  67.8958903
  27.2660113  44.4643833  67.7678903  24.0270113  39.9923833  70.3778903
  24.1880113  39.2483833  70.8048903  23.9820113  39.7433833  69.5428903
  24.0440113  39.8453833  70.3178903  26.5810113  51.7823833  62.8648903
  27.1270113  52.4613833  62.9188903  26.2310113  51.8643833  62.0698903
  26.6100113  51.8953833  62.7548903  33.4240113  35.0853833  68.2288903
  33.1440113  35.9103833  68.1848903  34.1400113  35.1383833  68.7248903
  33.4890113  35.2153833  68.2958903  25.7790113  35.8003833  70.2578903
  26.4840113  36.1203833  69.8558903  26.0200113  34.9933833  70.4848903
  25.9180113  35.7283833  70.2318903  24.7640113  50.0103833  66.2538903
  24.1400113  50.5923833  66.0718903  25.0120113  49.7243833  65.4678903
  24.7080113  50.0543833  66.1108903  29.0730113  46.6443833  73.2428903
  29.8300113  46.9303833  72.9168903  28.5260113  46.6963833  72.5648903
  29.1040113  46.6943833  73.0938903  32.9820113  49.1943833  71.7468903
  33.3280113  49.4643833  72.5008903  33.2760113  49.7763833  71.1668903
  33.0770113  49.3203833  71.7728903  34.8450113  41.3403833  57.0858903
  35.2230113  42.0173833  56.6858903  34.0030113  41.5643833  57.1168903
  34.7760113  41.4733833  57.0308903  26.3580113  44.7863833  56.1688903
  25.5530113  44.6093833  55.8838903  26.3250113  45.6373833  56.3608903
  26.2340113  44.8853833  56.1558903  22.2880113  40.8533833  66.3188903
  22.7280113  40.7503833  65.5728903  22.8330113  40.5403833  66.9238903
  22.4330113  40.7923833  66.2978903  30.3040113  39.9553833  71.9108903
  29.6560113  40.4253833  72.2588903  30.8690113  39.8663833  72.5698903
  30.2920113  40.0113833  72.0598903  29.9920113  41.4923833  68.2088903
  30.2940113  41.9123833  68.9118903  30.0280113  40.6523833  68.4408903
  30.0420113  41.4303833  68.3468903  27.4170113  51.6593833  72.1338903
  27.8950113  51.0593833  71.7178903  27.0660113  51.2163833  72.7988903
  27.4360113  51.5053833  72.1708903  32.5400113  40.9393833  60.4608903
  32.7470113  40.7383833  61.2848903  33.2960113  41.2073833  60.1188903
  32.6820113  40.9493833  60.5318903  25.8350113  35.8383833  66.3658903
  25.0090113  35.6893833  66.6028903  25.7950113  35.8733833  65.4948903
  25.7070113  35.8213833  66.2718903  33.5620113  37.0223833  61.9348903
  32.8480113  36.5513833  62.1058903  33.4000113  37.3633833  61.1488903
  33.4330113  37.0033833  61.8438903  34.0050113  44.9663833  60.3148903
  34.4810113  44.2373833  60.2668903  33.1840113  44.6803833  60.2388903
  33.9540113  44.8163833  60.2958903  27.4760113  46.8783833  71.1538903
  26.6810113  46.8143833  71.5048903  27.5470113  47.7253833  70.9588903
  27.3690113  46.9933833  71.1768903  18.4000113  36.2363833  72.4008903
  18.2600113  37.0313833  72.0698903  17.6140113  35.9933833  72.6898903
  18.2630113  36.3183833  72.3948903  23.3060113  53.0853833  66.4708903
  23.3170113  53.1443833  67.3408903  22.8810113  52.3383833  66.3208903
  23.2450113  52.9833833  66.5768903  21.4640113  38.9803833  59.6258903
  21.5900113  38.6513833  58.8278903  20.6520113  38.7313833  59.8248903
  21.3630113  38.8953833  59.5378903  30.2210113  46.1333833  62.6698903
  30.2970113  46.4743833  63.4688903  30.3900113  45.2863833  62.7908903
  30.2570113  46.0583833  62.8058903  27.7430113  45.4073833  62.2348903
  27.4450113  45.0923833  62.9918903  28.4380113  45.8803833  62.4698903
  27.8020113  45.4303833  62.3818903  27.9650113  49.5253833  70.2618903
  28.6520113  49.4113833  70.7868903  28.0990113  50.3163833  69.9178903
  28.0860113  49.6253833  70.2888903  36.1410113  42.1343833  72.0728903
  35.2860113  42.0123833  72.1988903  36.2940113  41.7393833  71.3098903
  36.0370113  42.0573833  71.9788903  30.6540113  42.7993833  70.6488903
  30.3990113  42.0803833  71.0708903  31.4750113  42.9153833  70.9188903
  30.7380113  42.7103833  70.7508903  20.0700113  52.5833833  71.9128903
  19.4160113  52.0143833  72.0108903  19.6950113  53.3563833  72.0638903
  19.9180113  52.6133833  71.9498903  28.5880113  43.9893833  73.8358903
  28.9110113  44.6753833  73.4038903  27.8840113  44.3123833  74.2378903
  28.5310113  44.1383833  73.8308903  31.6720113  52.3633833  64.7648903
  31.2210113  53.0063833  65.1438903  32.3800113  52.2843833  65.2698903
  31.7100113  52.4463833  64.8958903  28.3730113  47.4533833  67.6948903
  27.6790113  47.8553833  68.0378903  29.0500113  47.8863833  68.0338903
  28.3700113  47.5763833  67.7958903  33.7500113  50.0463833  74.2748903
  34.5260113  49.6563833  74.3578903  33.2810113  49.7103833  74.9298903
  33.7950113  49.9393833  74.3838903  21.4410113  40.9913833  70.0418903
  21.8160113  41.6103833  69.5548903  22.1150113  40.5173833  70.3268903
  21.5960113  41.0133833  70.0118903  19.2160113  39.4393833  69.3168903
  19.2930113  39.2703833  68.4638903  19.9620113  39.8453833  69.5138903
  19.3370113  39.4743833  69.2198903  34.7750113  42.0793833  59.7568903
  34.8780113  42.0213833  58.8928903  35.5160113  41.7473833  60.0748903
  34.9000113  42.0223833  59.6758903  21.7700113  36.8493833  71.7278903
  21.6890113  36.0053833  71.9338903  21.4560113  36.8933833  70.9148903
  21.7120113  36.7313833  71.6378903  28.6950113  49.0443833  60.8638903
  28.4900113  49.8773833  60.7048903  27.9200113  48.6623833  60.9858903
  28.5500113  49.1113833  60.8588903  33.8770113  42.2253833  69.1128903
  33.8750113  41.3623833  69.2368903  33.9440113  42.5493833  69.9198903
  33.8870113  42.1453833  69.2498903  18.6130113  44.6653833  69.5408903
  18.9330113  44.8843833  68.7598903  18.5130113  43.8003833  69.4858903
  18.6450113  44.5703833  69.4178903  20.0690113  40.6013833  56.1588903
  19.3970113  40.6153833  56.7148903  20.1640113  39.7533833  55.9748903
  19.9840113  40.4783833  56.2138903  29.7560113  37.0253833  72.8948903
  29.8480113  37.7373833  73.3888903  29.1190113  36.5803833  73.2918903
  29.6750113  37.0643833  73.0268903  28.7500113  37.2153833  63.7488903
  28.0500113  37.7333833  63.6928903  28.7880113  36.8353833  62.9648903
  28.6520113  37.2363833  63.6248903  24.0570113  49.3063833  57.2728903
  24.4980113  49.3863833  58.0208903  23.2520113  49.0903833  57.5308903
  24.0030113  49.2863833  57.4218903  32.3480113  37.7313833  66.5488903
  33.2030113  37.8303833  66.6938903  31.9790113  38.2843833  67.1138903
  32.4200113  37.8283833  66.6538903  23.3760113  43.9573833  70.9258903
  22.9800113  44.7313833  71.0008903  22.9700113  43.5843833  70.2498903
  23.2580113  44.0163833  70.8368903  32.6520113  43.0113833  65.0398903
  33.3180113  43.5523833  65.1998903  32.3070113  43.3223833  64.3008903
  32.6990113  43.1373833  64.9548903  32.9650113  51.0773833  60.8468903
  32.7910113  50.4233833  61.3968903  33.6780113  50.8063833  60.4238903
  33.0450113  50.9403833  60.8658903  21.3860113  48.3763833  57.8738903
  21.1420113  48.0693833  58.6538903  21.3530113  47.6733833  57.3578903
  21.3450113  48.2273833  57.9128903  24.2050113  46.6213833  56.6168903
  23.3870113  46.3533833  56.7568903  24.1770113  47.4733833  56.8018903
  24.0800113  46.7083833  56.6648903  23.8050113  36.9343833  68.3758903
  22.9410113  37.0183833  68.4558903  24.0250113  36.4203833  69.0448903
  23.7100113  36.8713833  68.4868903  35.8230113  35.5693833  69.7048903
  35.7710113  35.5253833  70.5748903  36.5100113  35.0663833  69.5148903
  35.9170113  35.4893833  69.8048903  27.9080113  37.6823833  66.7498903
  27.1710113  37.2283833  66.8628903  28.4790113  37.2803833  67.2728903
  27.8830113  37.5553833  66.8438903  30.6400113  48.5303833  68.5378903
  30.8460113  48.8313833  69.3298903  30.5790113  49.2523833  68.0528903
  30.6610113  48.6813833  68.5828903  30.1740113  52.7443833  72.7838903
  29.4210113  52.7263833  72.3428903  30.3420113  53.5963833  72.8678903
  30.0880113  52.8673833  72.7308903  25.4110113  42.0113833  71.9538903
  25.0890113  41.4353833  71.3838903  25.0520113  42.7663833  71.7078903
  25.3110113  42.0373833  71.8338903  26.2070113  35.2633833  56.5808903
  26.2850113  35.5103833  55.7478903  25.4640113  35.6403833  56.8388903
  26.1090113  35.3553833  56.4958903  35.4520113  47.1693833  67.9958903
  35.4200113  46.3073833  67.8608903  34.7590113  47.4713833  67.5618903
  35.3450113  47.0863833  67.9118903  23.8460113  52.3673833  72.2018903
  23.8870113  52.4933833  73.0648903  24.4970113  51.8073833  72.0458903
  23.9480113  52.3033833  72.3068903  33.5570113  50.4293833  66.7928903
  34.0840113  50.3463833  66.1018903  33.1660113  49.6513833  66.8468903
  33.5770113  50.3023833  66.6988903  21.0250113  37.0173833  69.0238903
  20.6820113  36.2503833  68.7898903  20.3300113  37.5413833  69.0878903
  20.8720113  36.9813833  68.9988903  30.0710113  35.8733833  66.0008903
  30.7410113  36.4173833  66.1278903  29.5680113  36.2973833  65.4278903
  30.0960113  36.0163833  65.9348903  21.4390113  50.7503833  73.5618903
  22.0340113  51.1813833  74.0338903  21.0750113  51.3743833  73.0728903
  21.4730113  50.9063833  73.5588903  29.4300113  41.6813833  63.4938903
  29.9810113  41.0743833  63.7938903  29.0050113  41.9443833  64.2088903
  29.4490113  41.6303833  63.6428903  19.6780113  40.3313833  62.9798903
  19.3100113  40.6333833  63.7108903  20.2120113  39.7023833  63.2638903
  19.7020113  40.2833833  63.1298903  19.3660113  48.7393833  70.4908903
  18.7920113  49.1553833  70.9998903  20.0990113  49.2043833  70.5858903
  19.3900113  48.8693833  70.5798903  31.4000113  43.5123833  60.0558903
  31.4680113  42.6623833  60.2368903  30.5770113  43.5983833  59.7778903
  31.2880113  43.3993833  60.0418903  21.1520113  52.0063833  59.2658903
  21.0070113  52.1623833  58.4198903  22.0180113  52.0853833  59.3438903
  21.2590113  52.0413833  59.1528903  25.3190113  44.4033833  58.9938903
  25.4190113  44.5423833  58.1388903  26.1370113  44.3433833  59.2898903
  25.4540113  44.4143833  58.9108903  34.4790113  52.4673833  56.4738903
  35.1160113  52.3333833  57.0548903  34.1380113  51.6733833  56.3568903
  34.5230113  52.3303833  56.5418903  34.6740113  44.8853833  73.2068903
  35.3080113  44.7153833  73.7808903  35.0910113  45.2883833  72.5548903
  34.8290113  44.9203833  73.1958903  30.5540113  48.7323833  58.7958903
  30.3030113  48.6043833  59.6218903  30.2370113  48.0373833  58.3748903
  30.4700113  48.6113833  58.8558903  35.2990113  39.4493833  73.9448903
  35.1030113  40.0933833  74.4998903  34.5770113  38.9593833  73.9368903
  35.1640113  39.4723833  74.0258903  35.1980113  40.3903833  66.9158903
  34.3650113  40.6403833  66.8438903  35.1420113  39.5503833  67.1448903
  35.0670113  40.3033833  66.9388903  24.4580113  37.3783833  72.1098903
  24.6920113  36.8023833  71.4968903  23.6160113  37.1973833  72.2508903
  24.3680113  37.2663833  72.0398903  32.0850113  44.9963833  74.5618903
  32.9560113  44.9603833  74.5258903  31.8660113  45.4163833  73.8298903
  32.1820113  45.0523833  74.4488903  21.8390113  50.8213833  65.7428903
  21.7600113  50.0113833  65.4268903  21.3950113  51.3083833  65.1708903
  21.7620113  50.7733833  65.6118903  27.4400113  46.9403833  58.2258903
  28.1570113  46.5933833  57.8698903  27.4060113  47.7403833  57.8778903
  27.5410113  47.0073833  58.1218903  19.4110113  53.0653833  69.3238903
  19.9040113  53.0093833  70.0418903  19.5990113  52.3323833  68.8888903
  19.5120113  52.9483833  69.3658903  18.5270113  46.6373833  42.5916493
  18.0860113  46.7553833  43.3346493  18.2440113  45.8623833  42.3066493
  18.4200113  46.5403833  42.6596493  34.8020113  49.9383833  40.1066493
  35.5030113  49.4193833  40.1026493  34.2150113  49.4933833  39.6376493
  34.8190113  49.7953833  40.0366493  18.2700113  40.4293833  39.0986493
  17.4920113  40.5913833  38.7386493  18.3090113  39.5583833  39.1206493
  18.1610113  40.3243833  39.0486493  31.3290113  43.5643833  43.8116493
  31.4090113  43.5683833  42.9426493  30.7450113  42.9323833  43.9606493
  31.2540113  43.4713833  43.7056493  21.0360113  47.3333833  41.6706493
  21.6440113  47.1633833  42.2736493  20.2850113  47.1933833  42.0916493
  21.0150113  47.2873833  41.8216493  19.9270113  50.4243833  37.7476493
  20.3940113  50.5083833  37.0156493  20.3820113  49.8463833  38.2166493
  20.0630113  50.3513833  37.7086493  18.4670113  49.3723833  48.8466493
  18.5960113  49.0923833  49.6626493  17.8570113  48.8313833  48.5376493
  18.3960113  49.2513833  48.9216493  19.9130113  43.8933833  43.0486493
  19.4510113  43.5013833  42.4216493  20.6130113  43.3803833  43.1406493
  19.9480113  43.7603833  42.9696493  25.0230113  50.0893833  51.1766493
  25.1610113  50.8493833  50.7696493  25.8140113  49.7243833  51.2036493
  25.1600113  50.1483833  51.1206493  21.9140113  41.9933833  43.0716493
  22.7310113  41.8063833  43.3146493  21.4370113  41.3793833  43.4676493
  21.9640113  41.8753833  43.1666493  26.1750113  47.4233833  41.8926493
  26.5060113  46.7793833  42.3786493  26.4150113  47.2123833  41.0816493
  26.2590113  47.2973833  41.8446493  22.5110113  37.0873833  42.3376493
  22.2150113  37.5883833  41.6876493  23.3780113  37.1653833  42.2806493
  22.5950113  37.1733833  42.2336493  18.3690113  41.6543833  46.0616493
  18.1130113  42.4853833  45.9866493  17.7050113  41.2713833  46.4786493
  18.2330113  41.7203833  46.1126493  18.2790113  51.3643833  43.9616493
  17.6870113  51.9223833  43.6486493  18.7050113  51.0953833  43.2496493
  18.2550113  51.4063833  43.8106493  24.1190113  49.2083833  41.4416493
  23.5400113  48.9333833  42.0336493  24.7430113  48.5993833  41.4666493
  24.1260113  49.0783833  41.5326493  30.2620113  51.4963833  38.9636493
  30.9890113  51.9683833  39.0656493  30.4910113  50.7023833  39.2436493
  30.4040113  51.4493833  39.0206493  28.4300113  51.8883833  40.9536493
  28.6440113  52.4153833  41.6156493  29.1970113  51.7143833  40.5746493
  28.5750113  51.9403833  40.9956493  24.7040113  38.6043833  55.8506493
  24.8210113  38.1503833  55.1146493  24.9920113  39.4023833  55.6476493
  24.7640113  38.6553833  55.7116493  19.8240113  50.0343833  41.8926493
  20.4800113  49.4593833  41.9076493  20.2130113  50.7833833  41.6716493
  19.9790113  50.0593833  41.8626493  30.8690113  51.8983833  49.2586493
  31.6130113  52.3543833  49.2486493  30.7480113  51.6843833  48.4216493
  30.9610113  51.9343833  49.1336493  20.4370113  38.2013833  54.8346493
  19.6590113  37.8113833  54.7626493  20.9280113  37.7893833  54.2436493
  20.3940113  38.0823833  54.7366493  20.6420113  48.5213833  45.3926493
  21.0650113  48.1653833  44.7186493  20.9660113  48.0993833  46.0846493
  20.7520113  48.4063833  45.3956493  23.8730113  51.3733833  44.6886493
  24.7170113  51.4773833  44.4936493  23.5760113  52.1913833  44.7566493
  23.9540113  51.5093833  44.6696493  27.0860113  35.8443833  54.0026493
  27.2640113  35.0353833  53.7276493  26.9430113  36.2853833  53.2636493
  27.0910113  35.7903833  53.8526493  32.4430113  53.0833833  39.3636493
  33.1080113  52.9353833  38.8186493  32.8030113  53.0003833  40.1536493
  32.5950113  53.0493833  39.3996493  22.8710113  52.5923833  50.4286493
  23.1630113  52.5253833  51.2486493  22.2450113  51.9873833  50.3836493
  22.8220113  52.4933833  50.5436493  17.7850113  38.7493833  52.4206493
  17.7810113  39.3363833  53.0666493  18.3790113  39.0613833  51.8636493
  17.8720113  38.8823833  52.4336493  30.1230113  49.0833833  52.9626493
  30.0890113  49.4653833  53.7466493  30.9770113  49.0413833  52.7916493
  30.2440113  49.1333833  53.0536493  27.2610113  49.2803833  37.7126493
  27.0800113  49.8253833  38.3696493  28.0270113  49.5703833  37.4116493
  27.3470113  49.4043833  37.7656493  18.7220113  38.3443833  41.3356493
  18.6080113  37.4803833  41.3666493  18.2470113  38.6383833  42.0056493
  18.6350113  38.2603833  41.4386493  20.8640113  50.7543833  49.5506493
  20.1660113  50.2463833  49.6766493  21.1240113  50.5493833  48.7426493
  20.7990113  50.6493833  49.4496493  28.5750113  52.2473833  50.4606493
  29.3430113  52.1673833  50.0546493  27.9920113  52.1263833  49.8226493
  28.6020113  52.2173833  50.3066493  34.8520113  52.8503833  43.3616493
  34.3970113  53.5673833  43.5626493  34.2380113  52.2793833  43.1196493
  34.6940113  52.8723833  43.3556493  31.8490113  48.6953833  42.9056493
  32.5500113  48.2133833  43.0946493  31.1890113  48.1263833  42.9506493
  31.8550113  48.5403833  42.9396493  22.2250113  49.6053833  52.1176493
  23.0660113  49.6683833  51.8956493  22.1880113  50.0023833  52.8936493
  22.3440113  49.6733833  52.1996493  21.2320113  34.6833833  42.8416493
  21.7680113  35.3713833  42.8316493  21.2350113  34.4093833  42.0136493
  21.3110113  34.7443833  42.7176493  17.7590113  49.4253833  55.6676493
  18.5150113  49.7743833  55.9256493  17.9360113  48.5723833  55.6106493
  17.8970113  49.3503833  55.6976493  21.6800113  38.4933833  44.4956493
  21.9520113  38.0633833  43.7876493  21.5040113  37.8573833  45.0666493
  21.6940113  38.3363833  44.4756493  34.3680113  46.1883833  38.7136493
  34.4870113  45.9013833  39.5286493  35.1750113  46.2093833  38.3836493
  34.5040113  46.1493833  38.7856493  21.5040113  45.9203833  44.0446493
  22.3550113  45.8403833  43.8716493  21.1470113  45.2383833  43.6326493
  21.5770113  45.8073833  43.9576493  20.2710113  52.6453833  45.2816493
  19.5980113  52.1473833  45.0366493  20.6740113  52.8303833  44.5306493
  20.2310113  52.5993833  45.1346493  19.8210113  39.5953833  47.5776493
  20.6640113  39.8153833  47.5346493  19.4320113  40.1683833  47.0466493
  19.8880113  39.7123833  47.4926493  36.6020113  50.6973833  52.9676493
  35.9200113  51.0073833  52.5206493  36.2330113  50.2393833  53.6126493
  36.4460113  50.6753833  52.9966493  32.2630113  42.7253833  38.2986493
  32.0430113  43.4563833  37.8766493  31.8150113  42.7763833  39.0456493
  32.1640113  42.8403833  38.3466493  23.8720113  45.9273833  42.2796493
  24.5850113  46.4223833  42.3696493  24.0940113  45.3603833  41.6536493
  24.0100113  45.9163833  42.2006493  36.4500113  37.5863833  37.7516493
  35.7880113  37.0183833  37.7746493  36.2570113  38.0983833  37.0716493
  36.3240113  37.5783833  37.6546493  18.0280113  47.5703833  45.5996493
  17.3610113  48.0583833  45.8756493  18.7080113  48.1153833  45.6286493
  18.0300113  47.7223833  45.6446493  25.6750113  41.2803833  55.6956493
  25.1910113  41.8573833  56.1376493  25.6470113  41.5753833  54.8746493
  25.5990113  41.4093833  55.6396493  18.0940113  44.2543833  40.7026493
  17.9090113  43.4153833  40.8546493  18.7530113  44.2183833  40.1326493
  18.1640113  44.1253833  40.6406493  28.3950113  49.6303833  44.6066493
  27.8720113  50.2643833  44.3136493  28.7050113  49.2663833  43.8776493
  28.3630113  49.6703833  44.4556493  18.2660113  48.4183833  40.2776493
  18.8180113  48.9873833  40.6416493  18.0340113  47.9033833  40.9426493
  18.3130113  48.4263833  40.4296493  18.0960113  46.8673833  37.9056493
  18.8520113  46.4353833  37.9636493  18.1110113  47.3993833  38.5966493
  18.2100113  46.8823833  38.0166493  19.0360113  45.0883833  45.9106493
  19.4670113  44.9593833  45.1636493  18.8310113  45.9363833  45.8846493
  19.0690113  45.1943833  45.7966493  34.4360113  51.0793833  51.0576493
  33.7650113  51.5933833  51.2756493  34.4990113  51.1793833  50.1936493
  34.3460113  51.1703833  50.9626493  23.1200113  48.6043833  44.1926493
  23.2460113  49.4473833  44.3796493  23.7880113  48.2053833  44.5886493
  23.2380113  48.6703833  44.2786493  21.2500113  42.0873833  54.0546493
  20.7140113  41.5813833  54.5226493  21.2700113  41.6973833  53.2746493
  21.1730113  41.9543833  54.0086493  21.7350113  41.4843833  39.1946493
  21.6070113  41.0363833  39.9326493  21.1530113  41.1423833  38.6426493
  21.6300113  41.3673833  39.2226493  21.9020113  43.3143833  45.7936493
  21.1210113  43.2553833  45.4106493  21.9740113  42.5623833  46.2306493
  21.7970113  43.1953833  45.8016493  26.4320113  51.8283833  48.6536493
  26.1550113  51.1873833  48.1306493  26.2240113  52.5543833  48.2156493
  26.3610113  51.8413833  48.5116493  20.1310113  44.4063833  54.8206493
  20.0940113  44.9073833  54.1066493  20.4620113  43.6543833  54.5256493
  20.1740113  44.3683833  54.6716493  26.0300113  49.4563833  54.2556493
  26.3840113  49.2783833  55.0326493  25.5940113  48.7273833  54.0566493
  26.0180113  49.3223833  54.3416493  29.1910113  43.3723833  39.1676493
  29.1830113  44.0943833  38.6776493  28.5520113  43.5073833  39.7446493
  29.0960113  43.4993833  39.1806493  34.1630113  47.2423833  43.1486493
  34.5190113  46.8923833  43.8636493  34.1550113  46.5813833  42.5786493
  34.2150113  47.0923833  43.1696493  30.2080113  50.3083833  46.9926493
  29.6050113  50.0123833  46.4356493  30.7530113  50.7603833  46.4836493
  30.1990113  50.3313833  46.8346493  30.2210113  47.1593833  46.3926493
  29.4240113  47.3833833  46.6666493  30.4790113  46.5653833  46.9776493
  30.1410113  47.1043833  46.5196493  24.1130113  51.9713833  40.8406493
  23.9660113  51.1953833  41.2116493  24.8020113  51.8243833  40.3256493
  24.1930113  51.8343833  40.8196493  23.7840113  35.7143833  38.8286493
  23.8810113  35.6073833  39.6896493  23.0760113  36.2203833  38.7636493
  23.6940113  35.7733833  38.9466493  26.4050113  51.4873833  39.2426493
  27.0270113  51.6503833  39.8326493  26.4410113  52.1783833  38.7106493
  26.5020113  51.6133833  39.2516493  29.6720113  50.5063833  55.5156493
  29.8360113  50.7893833  56.3246493  29.9350113  51.1673833  55.0106493
  29.7350113  50.6463833  55.5606493  20.9060113  44.0213833  40.0716493
  21.2300113  43.2423833  39.8496493  21.5520113  44.3893833  40.5266493
  21.0490113  43.9603833  40.1056493  17.9030113  35.6823833  41.0396493
  18.0320113  34.9743833  40.5476493  17.5360113  35.3643833  41.7646493
  17.8680113  35.5303833  41.0746493  32.8220113  47.6923833  47.3656493
  32.3430113  47.9903833  46.6996493  32.4660113  46.9163833  47.5436493
  32.6990113  47.6213833  47.2936493  22.0920113  37.8803833  38.0086493
  21.5810113  37.9333833  37.3026493  22.8760113  38.1203833  37.7126493
  22.1320113  37.9233833  37.8606493  23.5710113  52.1403833  36.8136493
  24.0100113  51.4433833  37.1016493  23.7780113  52.7643833  37.3866493
  23.6670113  52.1293833  36.9406493  36.5140113  51.8583833  39.3056493
  37.2080113  51.3913833  39.0576493  35.9750113  51.2603833  39.6426493
  36.5370113  51.7003833  39.3186493  18.7180113  41.6123833  41.6336493
  19.2070113  41.3203833  42.2946493  18.8470113  41.0193833  41.0066493
  18.8090113  41.4813833  41.6386493  23.2430113  43.0463833  37.1196493
  22.6330113  42.6413833  37.5936493  22.8570113  43.1643833  36.3466493
  23.0960113  43.0033833  37.0756493  20.0620113  46.1553833  52.5216493
  19.6410113  45.6373833  51.9606493  19.7100113  46.9413833  52.3786493
  19.9480113  46.1953833  52.4176493  35.0090113  44.7053833  45.9216493
  34.7230113  45.1063833  46.6416493  35.8690113  44.6433833  46.0486493
  35.0940113  44.7553833  46.0466493  18.1780113  37.4773833  46.3656493
  18.2220113  37.8213833  45.5646493  18.9330113  37.7143833  46.7326493
  18.2960113  37.5633833  46.3016493  36.1400113  50.3383833  46.4506493
  36.4300113  50.5953833  45.6696493  36.8350113  50.4343833  46.9696493
  36.2860113  50.3903833  46.4116493  32.7450113  48.9413833  38.4326493
  33.0790113  48.1353833  38.4676493  31.9900113  48.8693833  38.8626493
  32.6830113  48.8113833  38.5016493  30.1190113  46.8163833  37.8356493
  30.8030113  46.3023833  37.6666493  29.7020113  46.8623833  37.0706493
  30.1580113  46.7473833  37.6976493  26.5810113  51.7823833  43.8586493
  27.1270113  52.4613833  43.9126493  26.2310113  51.8643833  43.0636493
  26.6100113  51.8953833  43.7486493  25.7790113  35.8003833  51.2516493
  26.4840113  36.1203833  50.8496493  26.0200113  34.9933833  51.4786493
  25.9180113  35.7283833  51.2256493  24.7640113  50.0103833  47.2476493
  24.1400113  50.5923833  47.0656493  25.0120113  49.7243833  46.4616493
  24.7080113  50.0543833  47.1046493  29.0730113  46.6443833  54.2366493
  29.8300113  46.9303833  53.9106493  28.5260113  46.6963833  53.5586493
  29.1040113  46.6943833  54.0876493  32.9820113  49.1943833  52.7406493
  33.3280113  49.4643833  53.4946493  33.2760113  49.7763833  52.1606493
  33.0770113  49.3203833  52.7666493  34.8450113  41.3403833  38.0796493
  35.2230113  42.0173833  37.6796493  34.0030113  41.5643833  38.1106493
  34.7760113  41.4733833  38.0246493  26.3580113  44.7863833  37.1626493
  25.5530113  44.6093833  36.8776493  26.3250113  45.6373833  37.3546493
  26.2340113  44.8853833  37.1496493  27.4170113  51.6593833  53.1276493
  27.8950113  51.0593833  52.7116493  27.0660113  51.2163833  53.7926493
  27.4360113  51.5053833  53.1646493  32.5400113  40.9393833  41.4546493
  32.7470113  40.7383833  42.2786493  33.2960113  41.2073833  41.1126493
  32.6820113  40.9493833  41.5256493  25.8350113  35.8383833  47.3596493
  25.0090113  35.6893833  47.5966493  25.7950113  35.8733833  46.4886493
  25.7070113  35.8213833  47.2656493  34.0050113  44.9663833  41.3086493
  34.4810113  44.2373833  41.2606493  33.1840113  44.6803833  41.2326493
  33.9540113  44.8163833  41.2896493  23.3060113  53.0853833  47.4646493
  23.3170113  53.1443833  48.3346493  22.8810113  52.3383833  47.3146493
  23.2450113  52.9833833  47.5706493  21.4640113  38.9803833  40.6196493
  21.5900113  38.6513833  39.8216493  20.6520113  38.7313833  40.8186493
  21.3630113  38.8953833  40.5316493  30.2210113  46.1333833  43.6636493
  30.2970113  46.4743833  44.4626493  30.3900113  45.2863833  43.7846493
  30.2570113  46.0583833  43.7996493  27.9650113  49.5253833  51.2556493
  28.6520113  49.4113833  51.7806493  28.0990113  50.3163833  50.9116493
  28.0860113  49.6253833  51.2826493  20.0700113  52.5833833  52.9066493
  19.4160113  52.0143833  53.0046493  19.6950113  53.3563833  53.0576493
  19.9180113  52.6133833  52.9436493  31.6720113  52.3633833  45.7586493
  31.2210113  53.0063833  46.1376493  32.3800113  52.2843833  46.2636493
  31.7100113  52.4463833  45.8896493  33.7500113  50.0463833  55.2686493
  34.5260113  49.6563833  55.3516493  33.2810113  49.7103833  55.9236493
  33.7950113  49.9393833  55.3776493  21.4410113  40.9913833  51.0356493
  21.8160113  41.6103833  50.5486493  22.1150113  40.5173833  51.3206493
  21.5960113  41.0133833  51.0056493  19.2160113  39.4393833  50.3106493
  19.2930113  39.2703833  49.4576493  19.9620113  39.8453833  50.5076493
  19.3370113  39.4743833  50.2136493  34.7750113  42.0793833  40.7506493
  34.8780113  42.0213833  39.8866493  35.5160113  41.7473833  41.0686493
  34.9000113  42.0223833  40.6696493  21.7700113  36.8493833  52.7216493
  21.6890113  36.0053833  52.9276493  21.4560113  36.8933833  51.9086493
  21.7120113  36.7313833  52.6316493  28.6950113  49.0443833  41.8576493
  28.4900113  49.8773833  41.6986493  27.9200113  48.6623833  41.9796493
  28.5500113  49.1113833  41.8526493  18.6130113  44.6653833  50.5346493
  18.9330113  44.8843833  49.7536493  18.5130113  43.8003833  50.4796493
  18.6450113  44.5703833  50.4116493  20.0690113  40.6013833  37.1526493
  19.3970113  40.6153833  37.7086493  20.1640113  39.7533833  36.9686493
  19.9840113  40.4783833  37.2076493  24.0570113  49.3063833  38.2666493
  24.4980113  49.3863833  39.0146493  23.2520113  49.0903833  38.5246493
  24.0030113  49.2863833  38.4156493  32.6520113  43.0113833  46.0336493
  33.3180113  43.5523833  46.1936493  32.3070113  43.3223833  45.2946493
  32.6990113  43.1373833  45.9486493  32.9650113  51.0773833  41.8406493
  32.7910113  50.4233833  42.3906493  33.6780113  50.8063833  41.4176493
  33.0450113  50.9403833  41.8596493  21.3860113  48.3763833  38.8676493
  21.1420113  48.0693833  39.6476493  21.3530113  47.6733833  38.3516493
  21.3450113  48.2273833  38.9066493  24.2050113  46.6213833  37.6106493
  23.3870113  46.3533833  37.7506493  24.1770113  47.4733833  37.7956493
  24.0800113  46.7083833  37.6586493  23.8050113  36.9343833  49.3696493
  22.9410113  37.0183833  49.4496493  24.0250113  36.4203833  50.0386493
  23.7100113  36.8713833  49.4806493  30.6400113  48.5303833  49.5316493
  30.8460113  48.8313833  50.3236493  30.5790113  49.2523833  49.0466493
  30.6610113  48.6813833  49.5766493  30.1740113  52.7443833  53.7776493
  29.4210113  52.7263833  53.3366493  30.3420113  53.5963833  53.8616493
  30.0880113  52.8673833  53.7246493  26.2070113  35.2633833  37.5746493
  26.2850113  35.5103833  36.7416493  25.4640113  35.6403833  37.8326493
  26.1090113  35.3553833  37.4896493  23.8460113  52.3673833  53.1956493
  23.8870113  52.4933833  54.0586493  24.4970113  51.8073833  53.0396493
  23.9480113  52.3033833  53.3006493  33.5570113  50.4293833  47.7866493
  34.0840113  50.3463833  47.0956493  33.1660113  49.6513833  47.8406493
  33.5770113  50.3023833  47.6926493  21.0250113  37.0173833  50.0176493
  20.6820113  36.2503833  49.7836493  20.3300113  37.5413833  50.0816493
  20.8720113  36.9813833  49.9926493  21.4390113  50.7503833  54.5556493
  22.0340113  51.1813833  55.0276493  21.0750113  51.3743833  54.0666493
  21.4730113  50.9063833  54.5526493  19.6780113  40.3313833  43.9736493
  19.3100113  40.6333833  44.7046493  20.2120113  39.7023833  44.2576493
  19.7020113  40.2833833  44.1236493  19.3660113  48.7393833  51.4846493
  18.7920113  49.1553833  51.9936493  20.0990113  49.2043833  51.5796493
  19.3900113  48.8693833  51.5736493  31.4000113  43.5123833  41.0496493
  31.4680113  42.6623833  41.2306493  30.5770113  43.5983833  40.7716493
  31.2880113  43.3993833  41.0356493  21.1520113  52.0063833  40.2596493
  21.0070113  52.1623833  39.4136493  22.0180113  52.0853833  40.3376493
  21.2590113  52.0413833  40.1466493  25.3190113  44.4033833  39.9876493
  25.4190113  44.5423833  39.1326493  26.1370113  44.3433833  40.2836493
  25.4540113  44.4143833  39.9046493  34.4790113  52.4673833  37.4676493
  35.1160113  52.3333833  38.0486493  34.1380113  51.6733833  37.3506493
  34.5230113  52.3303833  37.5356493  30.5540113  48.7323833  39.7896493
  30.3030113  48.6043833  40.6156493  30.2370113  48.0373833  39.3686493
  30.4700113  48.6113833  39.8496493  24.4580113  37.3783833  53.1036493
  24.6920113  36.8023833  52.4906493  23.6160113  37.1973833  53.2446493
  24.3680113  37.2663833  53.0336493  32.0850113  44.9963833  55.5556493
  32.9560113  44.9603833  55.5196493  31.8660113  45.4163833  54.8236493
  32.1820113  45.0523833  55.4426493  21.8390113  50.8213833  46.7366493
  21.7600113  50.0113833  46.4206493  21.3950113  51.3083833  46.1646493
  21.7620113  50.7733833  46.6056493  27.4400113  46.9403833  39.2196493
  28.1570113  46.5933833  38.8636493  27.4060113  47.7403833  38.8716493
  27.5410113  47.0073833  39.1156493  19.4110113  53.0653833  50.3176493
  19.9040113  53.0093833  51.0356493  19.5990113  52.3323833  49.8826493
  19.5120113  52.9483833  50.3596493  28.6580113  42.4973833  28.1294083
  28.1340113  43.0933833  28.4924083  29.0550113  42.1293833  28.8134083
  28.6390113  42.5313833  28.2844083  18.5270113  46.6373833  23.5854083
  18.0860113  46.7553833  24.3284083  18.2440113  45.8623833  23.3004083
  18.4200113  46.5403833  23.6534083  34.8020113  49.9383833  21.1004083
  35.5030113  49.4193833  21.0964083  34.2150113  49.4933833  20.6314083
  34.8190113  49.7953833  21.0304083  18.2700113  40.4293833  20.0924083
  17.4920113  40.5913833  19.7324083  18.3090113  39.5583833  20.1144083
  18.1610113  40.3243833  20.0424083  21.4090113  45.6923833  18.7644083
  21.0170113  45.3213833  18.0784083  21.3290113  45.0943833  19.3934083
  21.3390113  45.5493833  18.7554083  31.3290113  43.5643833  24.8054083
  31.4090113  43.5683833  23.9364083  30.7450113  42.9323833  24.9544083
  31.2540113  43.4713833  24.6994083  21.0360113  47.3333833  22.6644083
  21.6440113  47.1633833  23.2674083  20.2850113  47.1933833  23.0854083
  21.0150113  47.2873833  22.8154083  25.3180113  36.6683833  22.6134083
  25.2480113  37.3453833  22.0674083  26.0590113  36.2803833  22.3644083
  25.4170113  36.7113833  22.4954083  19.9270113  50.4243833  18.7414083
  20.3940113  50.5083833  18.0094083  20.3820113  49.8463833  19.2104083
  20.0630113  50.3513833  18.7024083  18.4670113  49.3723833  29.8404083
  18.5960113  49.0923833  30.6564083  17.8570113  48.8313833  29.5314083
  18.3960113  49.2513833  29.9154083  25.0410113  46.8973833  34.9074083
  24.8050113  46.8943833  35.7474083  24.2930113  46.7493833  34.4834083
  24.8950113  46.8743833  34.9684083  19.9130113  43.8933833  24.0424083
  19.4510113  43.5013833  23.4154083  20.6130113  43.3803833  24.1344083
  19.9480113  43.7603833  23.9634083  24.4210113  39.5033833  29.3894083
  25.0990113  39.5213833  28.8404083  24.3760113  38.6673833  29.6344083
  24.5140113  39.3823833  29.3444083  25.0230113  50.0893833  32.1704083
  25.1610113  50.8493833  31.7634083  25.8140113  49.7243833  32.1974083
  25.1600113  50.1483833  32.1144083  21.9140113  41.9933833  24.0654083
  22.7310113  41.8063833  24.3084083  21.4370113  41.3793833  24.4614083
  21.9640113  41.8753833  24.1604083  26.1180113  47.9743833  26.6754083
  26.4660113  47.1753833  26.7054083  26.7830113  48.4783833  26.4204083
  26.2680113  47.9303833  26.6424083  26.1750113  47.4233833  22.8864083
  26.5060113  46.7793833  23.3724083  26.4150113  47.2123833  22.0754083
  26.2590113  47.2973833  22.8384083  22.5110113  37.0873833  23.3314083
  22.2150113  37.5883833  22.6814083  23.3780113  37.1653833  23.2744083
  22.5950113  37.1733833  23.2274083  30.1630113  39.1553833  17.8534083
  29.7130113  39.8363833  18.1604083  30.2770113  38.6513833  18.5564083
  30.1140113  39.1813833  18.0024083  18.3690113  41.6543833  27.0554083
  18.1130113  42.4853833  26.9804083  17.7050113  41.2713833  27.4724083
  18.2330113  41.7203833  27.1064083  18.2790113  51.3643833  24.9554083
  17.6870113  51.9223833  24.6424083  18.7050113  51.0953833  24.2434083
  18.2550113  51.4063833  24.8044083  24.1190113  49.2083833  22.4354083
  23.5400113  48.9333833  23.0274083  24.7430113  48.5993833  22.4604083
  24.1260113  49.0783833  22.5264083  30.2620113  51.4963833  19.9574083
  30.9890113  51.9683833  20.0594083  30.4910113  50.7023833  20.2374083
  30.4040113  51.4493833  20.0144083  28.4300113  51.8883833  21.9474083
  28.6440113  52.4153833  22.6094083  29.1970113  51.7143833  21.5684083
  28.5750113  51.9403833  21.9894083  21.3980113  36.4713833  27.5464083
  20.8770113  35.8433833  27.2384083  21.9890113  36.0343833  28.0174083
  21.4090113  36.3133833  27.5704083  24.7040113  38.6043833  36.8444083
  24.8210113  38.1503833  36.1084083  24.9920113  39.4023833  36.6414083
  24.7640113  38.6553833  36.7054083  19.8240113  50.0343833  22.8864083
  20.4800113  49.4593833  22.9014083  20.2130113  50.7833833  22.6654083
  19.9790113  50.0593833  22.8564083  35.5570113  39.1283833  24.1484083
  35.2110113  39.8063833  24.5744083  34.9210113  38.5303833  24.1644083
  35.4120113  39.1403833  24.2134083  30.8690113  51.8983833  30.2524083
  31.6130113  52.3543833  30.2424083  30.7480113  51.6843833  29.4154083
  30.9610113  51.9343833  30.1274083  20.4370113  38.2013833  35.8284083
  19.6590113  37.8113833  35.7564083  20.9280113  37.7893833  35.2374083
  20.3940113  38.0823833  35.7304083  20.6420113  48.5213833  26.3864083
  21.0650113  48.1653833  25.7124083  20.9660113  48.0993833  27.0784083
  20.7520113  48.4063833  26.3894083  23.8730113  51.3733833  25.6824083
  24.7170113  51.4773833  25.4874083  23.5760113  52.1913833  25.7504083
  23.9540113  51.5093833  25.6634083  27.6800113  40.7703833  23.7694083
  27.9670113  40.5383833  22.9794083  28.4120113  40.8493833  24.2384083
  27.8300113  40.7473833  23.7224083  28.4020113  41.1093833  18.8904083
  28.6830113  41.8973833  19.1394083  27.6260113  41.2743833  18.5274083
  28.3290113  41.2503833  18.8734083  32.4430113  53.0833833  20.3574083
  33.1080113  52.9353833  19.8124083  32.8030113  53.0003833  21.1474083
  32.5950113  53.0493833  20.3934083  22.8710113  52.5923833  31.4224083
  23.1630113  52.5253833  32.2424083  22.2450113  51.9873833  31.3774083
  22.8220113  52.4933833  31.5374083  17.7850113  38.7493833  33.4144083
  17.7810113  39.3363833  34.0604083  18.3790113  39.0613833  32.8574083
  17.8720113  38.8823833  33.4274083  30.1230113  49.0833833  33.9564083
  30.0890113  49.4653833  34.7404083  30.9770113  49.0413833  33.7854083
  30.2440113  49.1333833  34.0474083  27.2610113  49.2803833  18.7064083
  27.0800113  49.8253833  19.3634083  28.0270113  49.5703833  18.4054083
  27.3470113  49.4043833  18.7594083  30.7680113  37.1763833  19.7604083
  31.3080113  36.4943833  19.8364083  30.8300113  37.5743833  20.5344083
  30.8570113  37.1343833  19.8864083  18.7220113  38.3443833  22.3294083
  18.6080113  37.4803833  22.3604083  18.2470113  38.6383833  22.9994083
  18.6350113  38.2603833  22.4324083  20.8640113  50.7543833  30.5444083
  20.1660113  50.2463833  30.6704083  21.1240113  50.5493833  29.7364083
  20.7990113  50.6493833  30.4434083  28.0260113  39.5523833  21.0744083
  27.5180113  38.8903833  20.8204083  28.0780113  40.0563833  20.3644083
  27.9590113  39.5293833  20.9324083  28.5750113  52.2473833  31.4544083
  29.3430113  52.1673833  31.0484083  27.9920113  52.1263833  30.8164083
  28.6020113  52.2173833  31.3004083  28.0260113  36.4933833  20.9654083
  27.5710113  36.0913833  20.3394083  28.7990113  36.6483833  20.5904083
  28.0730113  36.4573833  20.8174083  34.8520113  52.8503833  24.3554083
  34.3970113  53.5673833  24.5564083  34.2380113  52.2793833  24.1134083
  34.6940113  52.8723833  24.3494083  26.6240113  38.8603833  25.4874083
  26.6980113  39.4283833  24.8294083  26.7450113  39.3523833  26.1974083
  26.6520113  39.0173833  25.4954083  31.8490113  48.6953833  23.8994083
  32.5500113  48.2133833  24.0884083  31.1890113  48.1263833  23.9444083
  31.8550113  48.5403833  23.9334083  22.2250113  49.6053833  33.1114083
  23.0660113  49.6683833  32.8894083  22.1880113  50.0023833  33.8874083
  22.3440113  49.6733833  33.1934083  21.2320113  34.6833833  23.8354083
  21.7680113  35.3713833  23.8254083  21.2350113  34.4093833  23.0074083
  21.3110113  34.7443833  23.7114083  24.1880113  45.1163833  27.8604083
  24.3600113  44.9063833  28.6894083  23.5330113  44.5823833  27.6444083
  24.1170113  45.0063833  27.9514083  30.4160113  39.0303833  31.3754083
  30.3210113  39.3493833  32.1814083  29.8230113  38.3913833  31.3374083
  30.3140113  38.9823833  31.4894083  24.9380113  45.0543833  30.4504083
  24.9910113  45.9013833  30.6524083  24.6530113  44.6843833  31.1874083
  24.9040113  45.1243833  30.5884083  31.1150113  45.7493833  29.5804083
  30.6010113  45.3373833  30.1514083  30.9890113  46.5933833  29.7614083
  31.0210113  45.8133833  29.6914083  17.7590113  49.4253833  36.6614083
  18.5150113  49.7743833  36.9194083  17.9360113  48.5723833  36.6044083
  17.8970113  49.3503833  36.6914083  34.1360113  39.2103833  32.5194083
  34.9080113  38.9853833  32.8564083  33.6610113  39.4273833  33.2194083
  34.1800113  39.2093833  32.6724083  21.6800113  38.4933833  25.4894083
  21.9520113  38.0633833  24.7814083  21.5040113  37.8573833  26.0604083
  21.6940113  38.3363833  25.4694083  34.3680113  46.1883833  19.7074083
  34.4870113  45.9013833  20.5224083  35.1750113  46.2093833  19.3774083
  34.5040113  46.1493833  19.7794083  21.5040113  45.9203833  25.0384083
  22.3550113  45.8403833  24.8654083  21.1470113  45.2383833  24.6264083
  21.5770113  45.8073833  24.9514083  20.2710113  52.6453833  26.2754083
  19.5980113  52.1473833  26.0304083  20.6740113  52.8303833  25.5244083
  20.2310113  52.5993833  26.1284083  19.8210113  39.5953833  28.5714083
  20.6640113  39.8153833  28.5284083  19.4320113  40.1683833  28.0404083
  19.8880113  39.7123833  28.4864083  36.6020113  50.6973833  33.9614083
  35.9200113  51.0073833  33.5144083  36.2330113  50.2393833  34.6064083
  36.4460113  50.6753833  33.9904083  32.2630113  42.7253833  19.2924083
  32.0430113  43.4563833  18.8704083  31.8150113  42.7763833  20.0394083
  32.1640113  42.8403833  19.3404083  23.8720113  45.9273833  23.2734083
  24.5850113  46.4223833  23.3634083  24.0940113  45.3603833  22.6474083
  24.0100113  45.9163833  23.1944083  36.4500113  37.5863833  18.7454083
  35.7880113  37.0183833  18.7684083  36.2570113  38.0983833  18.0654083
  36.3240113  37.5783833  18.6484083  18.0280113  47.5703833  26.5934083
  17.3610113  48.0583833  26.8694083  18.7080113  48.1153833  26.6224083
  18.0300113  47.7223833  26.6384083  25.6750113  41.2803833  36.6894083
  25.1910113  41.8573833  37.1314083  25.6470113  41.5753833  35.8684083
  25.5990113  41.4093833  36.6334083  36.7730113  41.9643833  31.3014083
  36.9880113  41.1643833  31.0254083  35.9230113  42.0243833  31.1124083
  36.6790113  41.8553833  31.2324083  18.0940113  44.2543833  21.6964083
  17.9090113  43.4153833  21.8484083  18.7530113  44.2183833  21.1264083
  18.1640113  44.1253833  21.6344083  34.4520113  37.1443833  21.0244083
  35.1980113  36.7373833  21.2234083  34.7150113  37.8593833  20.5994083
  34.6010113  37.1903833  20.9914083  28.3950113  49.6303833  25.6004083
  27.8720113  50.2643833  25.3074083  28.7050113  49.2663833  24.8714083
  28.3630113  49.6703833  25.4494083  18.2660113  48.4183833  21.2714083
  18.8180113  48.9873833  21.6354083  18.0340113  47.9033833  21.9364083
  18.3130113  48.4263833  21.4234083  22.4700113  47.4183833  28.3604083
  22.9370113  47.7073833  29.0384083  23.0420113  46.9403833  27.9064083
  22.6240113  47.3903833  28.3934083  30.9060113  39.4323833  26.0974083
  31.2500113  39.5843833  26.8844083  30.4530113  38.6943833  26.2104083
  30.8900113  39.3453833  26.2304083  18.0960113  46.8673833  18.8994083
  18.8520113  46.4353833  18.9574083  18.1110113  47.3993833  19.5904083
  18.2100113  46.8823833  19.0104083  19.0360113  45.0883833  26.9044083
  19.4670113  44.9593833  26.1574083  18.8310113  45.9363833  26.8784083
  19.0690113  45.1943833  26.7904083  25.3820113  38.6523833  20.5544083
  25.3800113  38.5353833  19.6894083  25.2010113  39.5003833  20.6464083
  25.3550113  38.7603833  20.4404083  34.4360113  51.0793833  32.0514083
  33.7650113  51.5933833  32.2694083  34.4990113  51.1793833  31.1874083
  34.3460113  51.1703833  31.9564083  23.1200113  48.6043833  25.1864083
  23.2460113  49.4473833  25.3734083  23.7880113  48.2053833  25.5824083
  23.2380113  48.6703833  25.2724083  21.2500113  42.0873833  35.0484083
  20.7140113  41.5813833  35.5164083  21.2700113  41.6973833  34.2684083
  21.1730113  41.9543833  35.0024083  21.7350113  41.4843833  20.1884083
  21.6070113  41.0363833  20.9264083  21.1530113  41.1423833  19.6364083
  21.6300113  41.3673833  20.2164083  21.9020113  43.3143833  26.7874083
  21.1210113  43.2553833  26.4044083  21.9740113  42.5623833  27.2244083
  21.7970113  43.1953833  26.7954083  22.3320113  43.0513833  30.2554083
  22.3570113  42.3763833  29.7044083  21.6860113  43.5473833  29.9434083
  22.2410113  43.0243833  30.1284083  32.2270113  40.7643833  28.6514083
  31.5650113  41.0923833  29.1144083  32.4140113  41.3983833  28.0824083
  32.1570113  40.9063833  28.6354083  26.4320113  51.8283833  29.6474083
  26.1550113  51.1873833  29.1244083  26.2240113  52.5543833  29.2094083
  26.3610113  51.8413833  29.5054083  30.4200113  38.7333833  22.1624083
  30.9100113  39.4503833  22.0854083  29.6300113  38.9943833  21.8994083
  30.3760113  38.8773833  22.1124083  20.1310113  44.4063833  35.8144083
  20.0940113  44.9073833  35.1004083  20.4620113  43.6543833  35.5194083
  20.1740113  44.3683833  35.6654083  31.7340113  46.6113833  34.0724083
  32.2180113  47.3293833  34.1704083  32.1280113  46.1843833  33.4214083
  31.8640113  46.6543833  33.9904083  26.0300113  49.4563833  35.2494083
  26.3840113  49.2783833  36.0264083  25.5940113  48.7273833  35.0504083
  26.0180113  49.3223833  35.3354083  27.0020113  40.2033833  27.8874083
  27.4820113  40.9023833  28.0954083  27.3750113  39.5563833  28.3384083
  27.1280113  40.2113833  27.9844083  29.1910113  43.3723833  20.1614083
  29.1830113  44.0943833  19.6714083  28.5520113  43.5073833  20.7384083
  29.0960113  43.4993833  20.1744083  34.1630113  47.2423833  24.1424083
  34.5190113  46.8923833  24.8574083  34.1550113  46.5813833  23.5724083
  34.2150113  47.0923833  24.1634083  30.2080113  50.3083833  27.9864083
  29.6050113  50.0123833  27.4294083  30.7530113  50.7603833  27.4774083
  30.1990113  50.3313833  27.8284083  30.2210113  47.1593833  27.3864083
  29.4240113  47.3833833  27.6604083  30.4790113  46.5653833  27.9714083
  30.1410113  47.1043833  27.5134083  24.1130113  51.9713833  21.8344083
  23.9660113  51.1953833  22.2054083  24.8020113  51.8243833  21.3194083
  24.1930113  51.8343833  21.8134083  23.7840113  35.7143833  19.8224083
  23.8810113  35.6073833  20.6834083  23.0760113  36.2203833  19.7574083
  23.6940113  35.7733833  19.9404083  26.4050113  51.4873833  20.2364083
  27.0270113  51.6503833  20.8264083  26.4410113  52.1783833  19.7044083
  26.5020113  51.6133833  20.2454083  33.4810113  45.1573833  32.2324083
  33.5360113  45.2823833  31.3704083  34.2340113  45.4773833  32.5344083
  33.6000113  45.2223833  32.1494083  29.6720113  50.5063833  36.5094083
  29.8360113  50.7893833  37.3184083  29.9350113  51.1673833  36.0044083
  29.7350113  50.6463833  36.5544083  20.9060113  44.0213833  21.0654083
  21.2300113  43.2423833  20.8434083  21.5520113  44.3893833  21.5204083
  21.0490113  43.9603833  21.0994083  29.2120113  44.9633833  31.8324083
  29.0570113  45.5733833  32.4364083  29.7460113  44.4053833  32.2384083
  29.2680113  44.9713833  31.9814083  17.9030113  35.6823833  22.0334083
  18.0320113  34.9743833  21.5414083  17.5360113  35.3643833  22.7584083
  17.8680113  35.5303833  22.0684083  27.5960113  43.3633833  22.4904083
  27.6550113  44.0133833  23.0694083  27.4070113  42.6673833  22.9814083
  27.5770113  43.3563833  22.6484083  32.8220113  47.6923833  28.3594083
  32.3430113  47.9903833  27.6934083  32.4660113  46.9163833  28.5374083
  32.6990113  47.6213833  28.2874083  22.0920113  37.8803833  19.0024083
  21.5810113  37.9333833  18.2964083  22.8760113  38.1203833  18.7064083
  22.1320113  37.9233833  18.8544083  26.8190113  45.4103833  26.9214083
  25.9720113  45.2163833  27.0024083  27.1430113  45.2453833  27.7144083
  26.7410113  45.3573833  27.0504083  23.5710113  52.1403833  17.8074083
  24.0100113  51.4433833  18.0954083  23.7780113  52.7643833  18.3804083
  23.6670113  52.1293833  17.9344083  20.6670113  45.1033833  29.2374083
  21.3890113  45.5913833  29.2004083  20.3970113  45.0733833  28.4084083
  20.7340113  45.1713833  29.1094083  23.8970113  40.2743833  25.9724083
  24.7430113  40.0843833  26.0704083  23.5270113  39.4973833  25.8344083
  23.9670113  40.1313833  25.9664083  36.5140113  51.8583833  20.2994083
  37.2080113  51.3913833  20.0514083  35.9750113  51.2603833  20.6364083
  36.5370113  51.7003833  20.3124083  18.7180113  41.6123833  22.6274083
  19.2070113  41.3203833  23.2884083  18.8470113  41.0193833  22.0004083
  18.8090113  41.4813833  22.6324083  33.7530113  44.6343833  29.4784083
  33.7460113  43.8583833  29.8764083  32.9120113  44.8683833  29.4714083
  33.6280113  44.5543833  29.5364083  23.2430113  43.0463833  18.1134083
  22.6330113  42.6413833  18.5874083  22.8570113  43.1643833  17.3404083
  23.0960113  43.0033833  18.0694083  20.0620113  46.1553833  33.5154083
  19.6410113  45.6373833  32.9544083  19.7100113  46.9413833  33.3724083
  19.9480113  46.1953833  33.4114083  35.0090113  44.7053833  26.9154083
  34.7230113  45.1063833  27.6354083  35.8690113  44.6433833  27.0424083
  35.0940113  44.7553833  27.0404083  24.6980113  41.5073833  20.8234083
  24.9700113  42.3333833  20.8904083  23.8350113  41.5823833  20.7274083
  24.6110113  41.6403833  20.8184083  18.1780113  37.4773833  27.3594083
  18.2220113  37.8213833  26.5584083  18.9330113  37.7143833  27.7264083
  18.2960113  37.5633833  27.2954083  36.1400113  50.3383833  27.4444083
  36.4300113  50.5953833  26.6634083  36.8350113  50.4343833  27.9634083
  36.2860113  50.3903833  27.4054083  31.1630113  42.1983833  35.5314083
  31.2360113  42.3023833  36.3944083  30.5290113  42.7563833  35.3104083
  31.0800113  42.2963833  35.6264083  33.4310113  42.5173833  33.8964083
  33.7500113  43.3033833  34.0994083  33.0610113  42.2473833  34.6394083
  33.4240113  42.5933833  34.0364083  32.7450113  48.9413833  19.4264083
  33.0790113  48.1353833  19.4614083  31.9900113  48.8693833  19.8564083
  32.6830113  48.8113833  19.4954083  33.2270113  40.7753833  25.0854083
  32.4820113  40.4523833  25.4034083  33.2290113  41.6013833  25.3654083
  33.1170113  40.8493833  25.1734083  36.1290113  43.0593833  36.6314083
  36.0770113  42.7183833  35.8304083  36.8660113  43.5263833  36.6094083
  36.2300113  43.0783833  36.5094083  35.6670113  46.7353833  32.8374083
  36.2950113  46.1863833  32.5814083  35.6060113  47.3003833  32.1754083
  35.7510113  46.7383833  32.7014083  30.1190113  46.8163833  18.8294083
  30.8030113  46.3023833  18.6604083  29.7020113  46.8623833  18.0644083
  30.1580113  46.7473833  18.6914083  24.8010113  47.9663833  30.1334083
  24.5030113  48.5583833  30.7004083  24.8560113  48.4083833  29.3844083
  24.7650113  48.1193833  30.1064083  22.7800113  46.9163833  33.5314083
  21.9740113  46.6263833  33.6984083  22.6910113  47.7843833  33.5374083
  22.6480113  47.0013833  33.5564083  27.3170113  44.3893833  29.6244083
  27.7930113  44.7633833  30.2524083  26.4940113  44.5233833  29.8834083
  27.2660113  44.4643833  29.7554083  24.0270113  39.9923833  32.3654083
  24.1880113  39.2483833  32.7924083  23.9820113  39.7433833  31.5304083
  24.0440113  39.8453833  32.3054083  26.5810113  51.7823833  24.8524083
  27.1270113  52.4613833  24.9064083  26.2310113  51.8643833  24.0574083
  26.6100113  51.8953833  24.7424083  25.7790113  35.8003833  32.2454083
  26.4840113  36.1203833  31.8434083  26.0200113  34.9933833  32.4724083
  25.9180113  35.7283833  32.2194083  24.7640113  50.0103833  28.2414083
  24.1400113  50.5923833  28.0594083  25.0120113  49.7243833  27.4554083
  24.7080113  50.0543833  28.0984083  29.0730113  46.6443833  35.2304083
  29.8300113  46.9303833  34.9044083  28.5260113  46.6963833  34.5524083
  29.1040113  46.6943833  35.0814083  32.9820113  49.1943833  33.7344083
  33.3280113  49.4643833  34.4884083  33.2760113  49.7763833  33.1544083
  33.0770113  49.3203833  33.7604083  34.8450113  41.3403833  19.0734083
  35.2230113  42.0173833  18.6734083  34.0030113  41.5643833  19.1044083
  34.7760113  41.4733833  19.0184083  26.3580113  44.7863833  18.1564083
  25.5530113  44.6093833  17.8714083  26.3250113  45.6373833  18.3484083
  26.2340113  44.8853833  18.1434083  22.2880113  40.8533833  28.3064083
  22.7280113  40.7503833  27.5604083  22.8330113  40.5403833  28.9114083
  22.4330113  40.7923833  28.2854083  30.3040113  39.9553833  33.8984083
  29.6560113  40.4253833  34.2464083  30.8690113  39.8663833  34.5574083
  30.2920113  40.0113833  34.0474083  29.9920113  41.4923833  30.1964083
  30.2940113  41.9123833  30.8994083  30.0280113  40.6523833  30.4284083
  30.0420113  41.4303833  30.3344083  27.4170113  51.6593833  34.1214083
  27.8950113  51.0593833  33.7054083  27.0660113  51.2163833  34.7864083
  27.4360113  51.5053833  34.1584083  32.5400113  40.9393833  22.4484083
  32.7470113  40.7383833  23.2724083  33.2960113  41.2073833  22.1064083
  32.6820113  40.9493833  22.5194083  25.8350113  35.8383833  28.3534083
  25.0090113  35.6893833  28.5904083  25.7950113  35.8733833  27.4824083
  25.7070113  35.8213833  28.2594083  33.5620113  37.0223833  23.9224083
  32.8480113  36.5513833  24.0934083  33.4000113  37.3633833  23.1364083
  33.4330113  37.0033833  23.8314083  34.0050113  44.9663833  22.3024083
  34.4810113  44.2373833  22.2544083  33.1840113  44.6803833  22.2264083
  33.9540113  44.8163833  22.2834083  27.4760113  46.8783833  33.1414083
  26.6810113  46.8143833  33.4924083  27.5470113  47.7253833  32.9464083
  27.3690113  46.9933833  33.1644083  18.4000113  36.2363833  34.3884083
  18.2600113  37.0313833  34.0574083  17.6140113  35.9933833  34.6774083
  18.2630113  36.3183833  34.3824083  23.3060113  53.0853833  28.4584083
  23.3170113  53.1443833  29.3284083  22.8810113  52.3383833  28.3084083
  23.2450113  52.9833833  28.5644083  21.4640113  38.9803833  21.6134083
  21.5900113  38.6513833  20.8154083  20.6520113  38.7313833  21.8124083
  21.3630113  38.8953833  21.5254083  30.2210113  46.1333833  24.6574083
  30.2970113  46.4743833  25.4564083  30.3900113  45.2863833  24.7784083
  30.2570113  46.0583833  24.7934083  27.7430113  45.4073833  24.2224083
  27.4450113  45.0923833  24.9794083  28.4380113  45.8803833  24.4574083
  27.8020113  45.4303833  24.3694083  27.9650113  49.5253833  32.2494083
  28.6520113  49.4113833  32.7744083  28.0990113  50.3163833  31.9054083
  28.0860113  49.6253833  32.2764083  36.1410113  42.1343833  34.0604083
  35.2860113  42.0123833  34.1864083  36.2940113  41.7393833  33.2974083
  36.0370113  42.0573833  33.9664083  30.6540113  42.7993833  32.6364083
  30.3990113  42.0803833  33.0584083  31.4750113  42.9153833  32.9064083
  30.7380113  42.7103833  32.7384083  20.0700113  52.5833833  33.9004083
  19.4160113  52.0143833  33.9984083  19.6950113  53.3563833  34.0514083
  19.9180113  52.6133833  33.9374083  28.5880113  43.9893833  35.8234083
  28.9110113  44.6753833  35.3914083  27.8840113  44.3123833  36.2254083
  28.5310113  44.1383833  35.8184083  31.6720113  52.3633833  26.7524083
  31.2210113  53.0063833  27.1314083  32.3800113  52.2843833  27.2574083
  31.7100113  52.4463833  26.8834083  28.3730113  47.4533833  29.6824083
  27.6790113  47.8553833  30.0254083  29.0500113  47.8863833  30.0214083
  28.3700113  47.5763833  29.7834083  33.7500113  50.0463833  36.2624083
  34.5260113  49.6563833  36.3454083  33.2810113  49.7103833  36.9174083
  33.7950113  49.9393833  36.3714083  21.4410113  40.9913833  32.0294083
  21.8160113  41.6103833  31.5424083  22.1150113  40.5173833  32.3144083
  21.5960113  41.0133833  31.9994083  19.2160113  39.4393833  31.3044083
  19.2930113  39.2703833  30.4514083  19.9620113  39.8453833  31.5014083
  19.3370113  39.4743833  31.2074083  34.7750113  42.0793833  21.7444083
  34.8780113  42.0213833  20.8804083  35.5160113  41.7473833  22.0624083
  34.9000113  42.0223833  21.6634083  21.7700113  36.8493833  33.7154083
  21.6890113  36.0053833  33.9214083  21.4560113  36.8933833  32.9024083
  21.7120113  36.7313833  33.6254083  28.6950113  49.0443833  22.8514083
  28.4900113  49.8773833  22.6924083  27.9200113  48.6623833  22.9734083
  28.5500113  49.1113833  22.8464083  33.8770113  42.2253833  31.1004083
  33.8750113  41.3623833  31.2244083  33.9440113  42.5493833  31.9074083
  33.8870113  42.1453833  31.2374083  18.6130113  44.6653833  31.5284083
  18.9330113  44.8843833  30.7474083  18.5130113  43.8003833  31.4734083
  18.6450113  44.5703833  31.4054083  20.0690113  40.6013833  18.1464083
  19.3970113  40.6153833  18.7024083  20.1640113  39.7533833  17.9624083
  19.9840113  40.4783833  18.2014083  28.7500113  37.2153833  25.7364083
  28.0500113  37.7333833  25.6804083  28.7880113  36.8353833  24.9524083
  28.6520113  37.2363833  25.6124083  24.0570113  49.3063833  19.2604083
  24.4980113  49.3863833  20.0084083  23.2520113  49.0903833  19.5184083
  24.0030113  49.2863833  19.4094083  32.3480113  37.7313833  28.5364083
  33.2030113  37.8303833  28.6814083  31.9790113  38.2843833  29.1014083
  32.4200113  37.8283833  28.6414083  23.3760113  43.9573833  32.9134083
  22.9800113  44.7313833  32.9884083  22.9700113  43.5843833  32.2374083
  23.2580113  44.0163833  32.8244083  32.6520113  43.0113833  27.0274083
  33.3180113  43.5523833  27.1874083  32.3070113  43.3223833  26.2884083
  32.6990113  43.1373833  26.9424083  32.9650113  51.0773833  22.8344083
  32.7910113  50.4233833  23.3844083  33.6780113  50.8063833  22.4114083
  33.0450113  50.9403833  22.8534083  21.3860113  48.3763833  19.8614083
  21.1420113  48.0693833  20.6414083  21.3530113  47.6733833  19.3454083
  21.3450113  48.2273833  19.9004083  24.2050113  46.6213833  18.6044083
  23.3870113  46.3533833  18.7444083  24.1770113  47.4733833  18.7894083
  24.0800113  46.7083833  18.6524083  23.8050113  36.9343833  30.3634083
  22.9410113  37.0183833  30.4434083  24.0250113  36.4203833  31.0324083
  23.7100113  36.8713833  30.4744083  35.8230113  35.5693833  31.6924083
  35.7710113  35.5253833  32.5624083  36.5100113  35.0663833  31.5024083
  35.9170113  35.4893833  31.7924083  27.9080113  37.6823833  28.7374083
  27.1710113  37.2283833  28.8504083  28.4790113  37.2803833  29.2604083
  27.8830113  37.5553833  28.8314083  30.6400113  48.5303833  30.5254083
  30.8460113  48.8313833  31.3174083  30.5790113  49.2523833  30.0404083
  30.6610113  48.6813833  30.5704083  30.1740113  52.7443833  34.7714083
  29.4210113  52.7263833  34.3304083  30.3420113  53.5963833  34.8554083
  30.0880113  52.8673833  34.7184083  25.4110113  42.0113833  33.9414083
  25.0890113  41.4353833  33.3714083  25.0520113  42.7663833  33.6954083
  25.3110113  42.0373833  33.8214083  26.2070113  35.2633833  18.5684083
  26.2850113  35.5103833  17.7354083  25.4640113  35.6403833  18.8264083
  26.1090113  35.3553833  18.4834083  35.4520113  47.1693833  29.9834083
  35.4200113  46.3073833  29.8484083  34.7590113  47.4713833  29.5494083
  35.3450113  47.0863833  29.8994083  23.8460113  52.3673833  34.1894083
  23.8870113  52.4933833  35.0524083  24.4970113  51.8073833  34.0334083
  23.9480113  52.3033833  34.2944083  33.5570113  50.4293833  28.7804083
  34.0840113  50.3463833  28.0894083  33.1660113  49.6513833  28.8344083
  33.5770113  50.3023833  28.6864083  21.0250113  37.0173833  31.0114083
  20.6820113  36.2503833  30.7774083  20.3300113  37.5413833  31.0754083
  20.8720113  36.9813833  30.9864083  21.4390113  50.7503833  35.5494083
  22.0340113  51.1813833  36.0214083  21.0750113  51.3743833  35.0604083
  21.4730113  50.9063833  35.5464083  29.4300113  41.6813833  25.4814083
  29.9810113  41.0743833  25.7814083  29.0050113  41.9443833  26.1964083
  29.4490113  41.6303833  25.6304083  19.6780113  40.3313833  24.9674083
  19.3100113  40.6333833  25.6984083  20.2120113  39.7023833  25.2514083
  19.7020113  40.2833833  25.1174083  19.3660113  48.7393833  32.4784083
  18.7920113  49.1553833  32.9874083  20.0990113  49.2043833  32.5734083
  19.3900113  48.8693833  32.5674083  31.4000113  43.5123833  22.0434083
  31.4680113  42.6623833  22.2244083  30.5770113  43.5983833  21.7654083
  31.2880113  43.3993833  22.0294083  21.1520113  52.0063833  21.2534083
  21.0070113  52.1623833  20.4074083  22.0180113  52.0853833  21.3314083
  21.2590113  52.0413833  21.1404083  25.3190113  44.4033833  20.9814083
  25.4190113  44.5423833  20.1264083  26.1370113  44.3433833  21.2774083
  25.4540113  44.4143833  20.8984083  34.4790113  52.4673833  18.4614083
  35.1160113  52.3333833  19.0424083  34.1380113  51.6733833  18.3444083
  34.5230113  52.3303833  18.5294083  34.6740113  44.8853833  35.1944083
  35.3080113  44.7153833  35.7684083  35.0910113  45.2883833  34.5424083
  34.8290113  44.9203833  35.1834083  30.5540113  48.7323833  20.7834083
  30.3030113  48.6043833  21.6094083  30.2370113  48.0373833  20.3624083
  30.4700113  48.6113833  20.8434083  35.2990113  39.4493833  35.9324083
  35.1030113  40.0933833  36.4874083  34.5770113  38.9593833  35.9244083
  35.1640113  39.4723833  36.0134083  35.1980113  40.3903833  28.9034083
  34.3650113  40.6403833  28.8314083  35.1420113  39.5503833  29.1324083
  35.0670113  40.3033833  28.9264083  24.4580113  37.3783833  34.0974083
  24.6920113  36.8023833  33.4844083  23.6160113  37.1973833  34.2384083
  24.3680113  37.2663833  34.0274083  32.0850113  44.9963833  36.5494083
  32.9560113  44.9603833  36.5134083  31.8660113  45.4163833  35.8174083
  32.1820113  45.0523833  36.4364083  21.8390113  50.8213833  27.7304083
  21.7600113  50.0113833  27.4144083  21.3950113  51.3083833  27.1584083
  21.7620113  50.7733833  27.5994083  27.4400113  46.9403833  20.2134083
  28.1570113  46.5933833  19.8574083  27.4060113  47.7403833  19.8654083
  27.5410113  47.0073833  20.1094083  19.4110113  53.0653833  31.3114083
  19.9040113  53.0093833  32.0294083  19.5990113  52.3323833  30.8764083
  19.5120113  52.9483833  31.3534083  28.8490113  35.5813833   4.4521673
  28.6040113  36.0693833   3.7721673  29.7120113  35.5083833   4.3521673
  28.9400113  35.6423833   4.3371673  28.6580113  42.4973833   9.1231673
  28.1340113  43.0933833   9.4861673  29.0550113  42.1293833   9.8071673
  28.6390113  42.5313833   9.2781673  18.5270113  46.6373833   4.5791673
  18.0860113  46.7553833   5.3221673  18.2440113  45.8623833   4.2941673
  18.4200113  46.5403833   4.6471673  34.8020113  49.9383833   2.0941673
  35.5030113  49.4193833   2.0901673  34.2150113  49.4933833   1.6251673
  34.8190113  49.7953833   2.0241673  31.3290113  43.5643833   5.7991673
  31.4090113  43.5683833   4.9301673  30.7450113  42.9323833   5.9481673
  31.2540113  43.4713833   5.6931673  21.0360113  47.3333833   3.6581673
  21.6440113  47.1633833   4.2611673  20.2850113  47.1933833   4.0791673
  21.0150113  47.2873833   3.8091673  25.3180113  36.6683833   3.6071673
  25.2480113  37.3453833   3.0611673  26.0590113  36.2803833   3.3581673
  25.4170113  36.7113833   3.4891673  18.4670113  49.3723833  10.8341673
  18.5960113  49.0923833  11.6501673  17.8570113  48.8313833  10.5251673
  18.3960113  49.2513833  10.9091673  25.0410113  46.8973833  15.9011673
  24.8050113  46.8943833  16.7411673  24.2930113  46.7493833  15.4771673
  24.8950113  46.8743833  15.9621673  19.9130113  43.8933833   5.0361673
  19.4510113  43.5013833   4.4091673  20.6130113  43.3803833   5.1281673
  19.9480113  43.7603833   4.9571673  24.4210113  39.5033833  10.3831673
  25.0990113  39.5213833   9.8341673  24.3760113  38.6673833  10.6281673
  24.5140113  39.3823833  10.3381673  25.0230113  50.0893833  13.1641673
  25.1610113  50.8493833  12.7571673  25.8140113  49.7243833  13.1911673
  25.1600113  50.1483833  13.1081673  21.9140113  41.9933833   5.0591673
  22.7310113  41.8063833   5.3021673  21.4370113  41.3793833   5.4551673
  21.9640113  41.8753833   5.1541673  26.1180113  47.9743833   7.6691673
  26.4660113  47.1753833   7.6991673  26.7830113  48.4783833   7.4141673
  26.2680113  47.9303833   7.6361673  26.1750113  47.4233833   3.8801673
  26.5060113  46.7793833   4.3661673  26.4150113  47.2123833   3.0691673
  26.2590113  47.2973833   3.8321673  28.1430113  41.5543833  15.2191673
  27.2950113  41.4553833  15.0411673  28.1720113  42.2993833  15.6731673
  28.0220113  41.6503833  15.2601673  22.5110113  37.0873833   4.3251673
  22.2150113  37.5883833   3.6751673  23.3780113  37.1653833   4.2681673
  22.5950113  37.1733833   4.2211673  32.7010113  34.5143833  14.3331673
  32.5430113  35.2833833  13.9511673  31.9290113  34.2943833  14.6771673
  32.5630113  34.5953833  14.3281673  25.4900113  36.2293833   6.5481673
  25.5630113  37.0893833   6.6771673  25.4520113  36.1543833   5.6801673
  25.4950113  36.3453833   6.4391673  18.3690113  41.6543833   8.0491673
  18.1130113  42.4853833   7.9741673  17.7050113  41.2713833   8.4661673
  18.2330113  41.7203833   8.1001673  18.2790113  51.3643833   5.9491673
  17.6870113  51.9223833   5.6361673  18.7050113  51.0953833   5.2371673
  18.2550113  51.4063833   5.7981673  24.1190113  49.2083833   3.4291673
  23.5400113  48.9333833   4.0211673  24.7430113  48.5993833   3.4541673
  24.1260113  49.0783833   3.5201673  28.4300113  51.8883833   2.9411673
  28.6440113  52.4153833   3.6031673  29.1970113  51.7143833   2.5621673
  28.5750113  51.9403833   2.9831673  21.3980113  36.4713833   8.5401673
  20.8770113  35.8433833   8.2321673  21.9890113  36.0343833   9.0111673
  21.4090113  36.3133833   8.5641673  24.7040113  38.6043833  17.8381673
  24.8210113  38.1503833  17.1021673  24.9920113  39.4023833  17.6351673
  24.7640113  38.6553833  17.6991673  19.8240113  50.0343833   3.8801673
  20.4800113  49.4593833   3.8951673  20.2130113  50.7833833   3.6591673
  19.9790113  50.0593833   3.8501673  35.5570113  39.1283833   5.1421673
  35.2110113  39.8063833   5.5681673  34.9210113  38.5303833   5.1581673
  35.4120113  39.1403833   5.2071673  30.8690113  51.8983833  11.2461673
  31.6130113  52.3543833  11.2361673  30.7480113  51.6843833  10.4091673
  30.9610113  51.9343833  11.1211673  20.4370113  38.2013833  16.8221673
  19.6590113  37.8113833  16.7501673  20.9280113  37.7893833  16.2311673
  20.3940113  38.0823833  16.7241673  20.6420113  48.5213833   7.3801673
  21.0650113  48.1653833   6.7061673  20.9660113  48.0993833   8.0721673
  20.7520113  48.4063833   7.3831673  23.8730113  51.3733833   6.6761673
  24.7170113  51.4773833   6.4811673  23.5760113  52.1913833   6.7441673
  23.9540113  51.5093833   6.6571673  27.0860113  35.8443833  15.9901673
  27.2640113  35.0353833  15.7151673  26.9430113  36.2853833  15.2511673
  27.0910113  35.7903833  15.8401673  27.6800113  40.7703833   4.7631673
  27.9670113  40.5383833   3.9731673  28.4120113  40.8493833   5.2321673
  27.8300113  40.7473833   4.7161673  22.8710113  52.5923833  12.4161673
  23.1630113  52.5253833  13.2361673  22.2450113  51.9873833  12.3711673
  22.8220113  52.4933833  12.5311673  35.2320113  37.4513833  10.5111673
  35.9890113  37.5233833  10.0831673  35.2950113  36.6783833  10.9101673
  35.3530113  37.3483833  10.5061673  17.7850113  38.7493833  14.4081673
  17.7810113  39.3363833  15.0541673  18.3790113  39.0613833  13.8511673
  17.8720113  38.8823833  14.4211673  30.1230113  49.0833833  14.9501673
  30.0890113  49.4653833  15.7341673  30.9770113  49.0413833  14.7791673
  30.2440113  49.1333833  15.0411673  18.7220113  38.3443833   3.3231673
  18.6080113  37.4803833   3.3541673  18.2470113  38.6383833   3.9931673
  18.6350113  38.2603833   3.4261673  20.8640113  50.7543833  11.5381673
  20.1660113  50.2463833  11.6641673  21.1240113  50.5493833  10.7301673
  20.7990113  50.6493833  11.4371673  28.0260113  39.5523833   2.0681673
  27.5180113  38.8903833   1.8141673  28.0780113  40.0563833   1.3581673
  27.9590113  39.5293833   1.9261673  28.5750113  52.2473833  12.4481673
  29.3430113  52.1673833  12.0421673  27.9920113  52.1263833  11.8101673
  28.6020113  52.2173833  12.2941673  34.8520113  52.8503833   5.3491673
  34.3970113  53.5673833   5.5501673  34.2380113  52.2793833   5.1071673
  34.6940113  52.8723833   5.3431673  26.6240113  38.8603833   6.4811673
  26.6980113  39.4283833   5.8231673  26.7450113  39.3523833   7.1911673
  26.6520113  39.0173833   6.4891673  31.8490113  48.6953833   4.8931673
  32.5500113  48.2133833   5.0821673  31.1890113  48.1263833   4.9381673
  31.8550113  48.5403833   4.9271673  22.2250113  49.6053833  14.1051673
  23.0660113  49.6683833  13.8831673  22.1880113  50.0023833  14.8811673
  22.3440113  49.6733833  14.1871673  21.2320113  34.6833833   4.8291673
  21.7680113  35.3713833   4.8191673  21.2350113  34.4093833   4.0011673
  21.3110113  34.7443833   4.7051673  24.1880113  45.1163833   8.8541673
  24.3600113  44.9063833   9.6831673  23.5330113  44.5823833   8.6381673
  24.1170113  45.0063833   8.9451673  30.4160113  39.0303833  12.3691673
  30.3210113  39.3493833  13.1751673  29.8230113  38.3913833  12.3311673
  30.3140113  38.9823833  12.4831673  24.9380113  45.0543833  11.4441673
  24.9910113  45.9013833  11.6461673  24.6530113  44.6843833  12.1811673
  24.9040113  45.1243833  11.5821673  31.1150113  45.7493833  10.5741673
  30.6010113  45.3373833  11.1451673  30.9890113  46.5933833  10.7551673
  31.0210113  45.8133833  10.6851673  31.6720113  34.9743833   5.2051673
  31.7210113  34.6563833   6.0161673  31.9950113  34.3303833   4.7121673
  31.7270113  34.8323833   5.2521673  17.7590113  49.4253833  17.6551673
  18.5150113  49.7743833  17.9131673  17.9360113  48.5723833  17.5981673
  17.8970113  49.3503833  17.6851673  34.1360113  39.2103833  13.5131673
  34.9080113  38.9853833  13.8501673  33.6610113  39.4273833  14.2131673
  34.1800113  39.2093833  13.6661673  21.6800113  38.4933833   6.4831673
  21.9520113  38.0633833   5.7751673  21.5040113  37.8573833   7.0541673
  21.6940113  38.3363833   6.4631673  21.5040113  45.9203833   6.0321673
  22.3550113  45.8403833   5.8591673  21.1470113  45.2383833   5.6201673
  21.5770113  45.8073833   5.9451673  20.2710113  52.6453833   7.2691673
  19.5980113  52.1473833   7.0241673  20.6740113  52.8303833   6.5181673
  20.2310113  52.5993833   7.1221673  19.8210113  39.5953833   9.5651673
  20.6640113  39.8153833   9.5221673  19.4320113  40.1683833   9.0341673
  19.8880113  39.7123833   9.4801673  36.6020113  50.6973833  14.9551673
  35.9200113  51.0073833  14.5081673  36.2330113  50.2393833  15.6001673
  36.4460113  50.6753833  14.9841673  23.8720113  45.9273833   4.2671673
  24.5850113  46.4223833   4.3571673  24.0940113  45.3603833   3.6411673
  24.0100113  45.9163833   4.1881673  18.0280113  47.5703833   7.5871673
  17.3610113  48.0583833   7.8631673  18.7080113  48.1153833   7.6161673
  18.0300113  47.7223833   7.6321673  36.7730113  41.9643833  12.2951673
  36.9880113  41.1643833  12.0191673  35.9230113  42.0243833  12.1061673
  36.6790113  41.8553833  12.2261673  18.0940113  44.2543833   2.6901673
  17.9090113  43.4153833   2.8421673  18.7530113  44.2183833   2.1201673
  18.1640113  44.1253833   2.6281673  34.4520113  37.1443833   2.0181673
  35.1980113  36.7373833   2.2171673  34.7150113  37.8593833   1.5931673
  34.6010113  37.1903833   1.9851673  28.3950113  49.6303833   6.5941673
  27.8720113  50.2643833   6.3011673  28.7050113  49.2663833   5.8651673
  28.3630113  49.6703833   6.4431673  18.2660113  48.4183833   2.2651673
  18.8180113  48.9873833   2.6291673  18.0340113  47.9033833   2.9301673
  18.3130113  48.4263833   2.4171673  22.4700113  47.4183833   9.3541673
  22.9370113  47.7073833  10.0321673  23.0420113  46.9403833   8.9001673
  22.6240113  47.3903833   9.3871673  30.9060113  39.4323833   7.0911673
  31.2500113  39.5843833   7.8781673  30.4530113  38.6943833   7.2041673
  30.8900113  39.3453833   7.2241673  19.0360113  45.0883833   7.8981673
  19.4670113  44.9593833   7.1511673  18.8310113  45.9363833   7.8721673
  19.0690113  45.1943833   7.7841673  34.4360113  51.0793833  13.0451673
  33.7650113  51.5933833  13.2631673  34.4990113  51.1793833  12.1811673
  34.3460113  51.1703833  12.9501673  23.1200113  48.6043833   6.1801673
  23.2460113  49.4473833   6.3671673  23.7880113  48.2053833   6.5761673
  23.2380113  48.6703833   6.2661673  21.2500113  42.0873833  16.0421673
  20.7140113  41.5813833  16.5101673  21.2700113  41.6973833  15.2621673
  21.1730113  41.9543833  15.9961673  21.9020113  43.3143833   7.7811673
  21.1210113  43.2553833   7.3981673  21.9740113  42.5623833   8.2181673
  21.7970113  43.1953833   7.7891673  22.3320113  43.0513833  11.2491673
  22.3570113  42.3763833  10.6981673  21.6860113  43.5473833  10.9371673
  22.2410113  43.0243833  11.1221673  32.2270113  40.7643833   9.6451673
  31.5650113  41.0923833  10.1081673  32.4140113  41.3983833   9.0761673
  32.1570113  40.9063833   9.6291673  26.4320113  51.8283833  10.6411673
  26.1550113  51.1873833  10.1181673  26.2240113  52.5543833  10.2031673
  26.3610113  51.8413833  10.4991673  28.8720113  36.6703833  13.0741673
  29.0210113  35.8453833  12.8311673  29.2510113  36.7253833  13.8581673
  28.9500113  36.5563833  13.1541673  30.4200113  38.7333833   3.1561673
  30.9100113  39.4503833   3.0791673  29.6300113  38.9943833   2.8931673
  30.3760113  38.8773833   3.1061673  20.1310113  44.4063833  16.8081673
  20.0940113  44.9073833  16.0941673  20.4620113  43.6543833  16.5131673
  20.1740113  44.3683833  16.6591673  31.7340113  46.6113833  15.0661673
  32.2180113  47.3293833  15.1641673  32.1280113  46.1843833  14.4151673
  31.8640113  46.6543833  14.9841673  26.0300113  49.4563833  16.2431673
  26.3840113  49.2783833  17.0201673  25.5940113  48.7273833  16.0441673
  26.0180113  49.3223833  16.3291673  27.0020113  40.2033833   8.8811673
  27.4820113  40.9023833   9.0891673  27.3750113  39.5563833   9.3321673
  27.1280113  40.2113833   8.9781673  34.1630113  47.2423833   5.1361673
  34.5190113  46.8923833   5.8511673  34.1550113  46.5813833   4.5661673
  34.2150113  47.0923833   5.1571673  30.2080113  50.3083833   8.9801673
  29.6050113  50.0123833   8.4231673  30.7530113  50.7603833   8.4711673
  30.1990113  50.3313833   8.8221673  30.2210113  47.1593833   8.3801673
  29.4240113  47.3833833   8.6541673  30.4790113  46.5653833   8.9651673
  30.1410113  47.1043833   8.5071673  24.1130113  51.9713833   2.8281673
  23.9660113  51.1953833   3.1991673  24.8020113  51.8243833   2.3131673
  24.1930113  51.8343833   2.8071673  33.4810113  45.1573833  13.2261673
  33.5360113  45.2823833  12.3641673  34.2340113  45.4773833  13.5281673
  33.6000113  45.2223833  13.1431673  29.6720113  50.5063833  17.5031673
  29.8360113  50.7893833  18.3121673  29.9350113  51.1673833  16.9981673
  29.7350113  50.6463833  17.5481673  34.5130113  35.4553833  16.2131673
  33.8760113  35.0553833  15.7711673  34.5390113  35.0243833  16.9711673
  34.4230113  35.3333833  16.2591673  20.9060113  44.0213833   2.0591673
  21.2300113  43.2423833   1.8371673  21.5520113  44.3893833   2.5141673
  21.0490113  43.9603833   2.0931673  29.2120113  44.9633833  12.8261673
  29.0570113  45.5733833  13.4301673  29.7460113  44.4053833  13.2321673
  29.2680113  44.9713833  12.9751673  17.9030113  35.6823833   3.0271673
  18.0320113  34.9743833   2.5351673  17.5360113  35.3643833   3.7521673
  17.8680113  35.5303833   3.0621673  27.5960113  43.3633833   3.4841673
  27.6550113  44.0133833   4.0631673  27.4070113  42.6673833   3.9751673
  27.5770113  43.3563833   3.6421673  32.8220113  47.6923833   9.3531673
  32.3430113  47.9903833   8.6871673  32.4660113  46.9163833   9.5311673
  32.6990113  47.6213833   9.2811673  26.8190113  45.4103833   7.9151673
  25.9720113  45.2163833   7.9961673  27.1430113  45.2453833   8.7081673
  26.7410113  45.3573833   8.0441673  20.6670113  45.1033833  10.2311673
  21.3890113  45.5913833  10.1941673  20.3970113  45.0733833   9.4021673
  20.7340113  45.1713833  10.1031673  23.8970113  40.2743833   6.9661673
  24.7430113  40.0843833   7.0641673  23.5270113  39.4973833   6.8281673
  23.9670113  40.1313833   6.9601673  18.7180113  41.6123833   3.6211673
  19.2070113  41.3203833   4.2821673  18.8470113  41.0193833   2.9941673
  18.8090113  41.4813833   3.6261673  33.7530113  44.6343833  10.4721673
  33.7460113  43.8583833  10.8701673  32.9120113  44.8683833  10.4651673
  33.6280113  44.5543833  10.5301673  20.0620113  46.1553833  14.5091673
  19.6410113  45.6373833  13.9481673  19.7100113  46.9413833  14.3661673
  19.9480113  46.1953833  14.4051673  35.0090113  44.7053833   7.9091673
  34.7230113  45.1063833   8.6291673  35.8690113  44.6433833   8.0361673
  35.0940113  44.7553833   8.0341673  24.6980113  41.5073833   1.8171673
  24.9700113  42.3333833   1.8841673  23.8350113  41.5823833   1.7211673
  24.6110113  41.6403833   1.8121673  32.6710113  38.6293833  16.4491673
  32.1460113  39.0883833  16.9731673  32.3100113  37.8343833  16.4431673
  32.5400113  38.5793833  16.5251673  18.1780113  37.4773833   8.3531673
  18.2220113  37.8213833   7.5521673  18.9330113  37.7143833   8.7201673
  18.2960113  37.5633833   8.2891673  36.1400113  50.3383833   8.4381673
  36.4300113  50.5953833   7.6571673  36.8350113  50.4343833   8.9571673
  36.2860113  50.3903833   8.3991673  31.1630113  42.1983833  16.5251673
  31.2360113  42.3023833  17.3881673  30.5290113  42.7563833  16.3041673
  31.0800113  42.2963833  16.6201673  33.4310113  42.5173833  14.8901673
  33.7500113  43.3033833  15.0931673  33.0610113  42.2473833  15.6331673
  33.4240113  42.5933833  15.0301673  33.2270113  40.7753833   6.0791673
  32.4820113  40.4523833   6.3971673  33.2290113  41.6013833   6.3591673
  33.1170113  40.8493833   6.1671673  36.1290113  43.0593833  17.6251673
  36.0770113  42.7183833  16.8241673  36.8660113  43.5263833  17.6031673
  36.2300113  43.0783833  17.5031673  35.6670113  46.7353833  13.8311673
  36.2950113  46.1863833  13.5751673  35.6060113  47.3003833  13.1691673
  35.7510113  46.7383833  13.6951673  24.8010113  47.9663833  11.1271673
  24.5030113  48.5583833  11.6941673  24.8560113  48.4083833  10.3781673
  24.7650113  48.1193833  11.1001673  22.7800113  46.9163833  14.5251673
  21.9740113  46.6263833  14.6921673  22.6910113  47.7843833  14.5311673
  22.6480113  47.0013833  14.5501673  27.3170113  44.3893833  10.6181673
  27.7930113  44.7633833  11.2461673  26.4940113  44.5233833  10.8771673
  27.2660113  44.4643833  10.7491673  24.0270113  39.9923833  13.3591673
  24.1880113  39.2483833  13.7861673  23.9820113  39.7433833  12.5241673
  24.0440113  39.8453833  13.2991673  26.5810113  51.7823833   5.8461673
  27.1270113  52.4613833   5.9001673  26.2310113  51.8643833   5.0511673
  26.6100113  51.8953833   5.7361673  33.4240113  35.0853833  11.2101673
  33.1440113  35.9103833  11.1661673  34.1400113  35.1383833  11.7061673
  33.4890113  35.2153833  11.2771673  25.7790113  35.8003833  13.2391673
  26.4840113  36.1203833  12.8371673  26.0200113  34.9933833  13.4661673
  25.9180113  35.7283833  13.2131673  24.7640113  50.0103833   9.2351673
  24.1400113  50.5923833   9.0531673  25.0120113  49.7243833   8.4491673
  24.7080113  50.0543833   9.0921673  29.0730113  46.6443833  16.2241673
  29.8300113  46.9303833  15.8981673  28.5260113  46.6963833  15.5461673
  29.1040113  46.6943833  16.0751673  32.9820113  49.1943833  14.7281673
  33.3280113  49.4643833  15.4821673  33.2760113  49.7763833  14.1481673
  33.0770113  49.3203833  14.7541673  22.2880113  40.8533833   9.3001673
  22.7280113  40.7503833   8.5541673  22.8330113  40.5403833   9.9051673
  22.4330113  40.7923833   9.2791673  30.3040113  39.9553833  14.8921673
  29.6560113  40.4253833  15.2401673  30.8690113  39.8663833  15.5511673
  30.2920113  40.0113833  15.0411673  29.9920113  41.4923833  11.1901673
  30.2940113  41.9123833  11.8931673  30.0280113  40.6523833  11.4221673
  30.0420113  41.4303833  11.3281673  27.4170113  51.6593833  15.1151673
  27.8950113  51.0593833  14.6991673  27.0660113  51.2163833  15.7801673
  27.4360113  51.5053833  15.1521673  32.5400113  40.9393833   3.4421673
  32.7470113  40.7383833   4.2661673  33.2960113  41.2073833   3.1001673
  32.6820113  40.9493833   3.5131673  25.8350113  35.8383833   9.3471673
  25.0090113  35.6893833   9.5841673  25.7950113  35.8733833   8.4761673
  25.7070113  35.8213833   9.2531673  33.5620113  37.0223833   4.9161673
  32.8480113  36.5513833   5.0871673  33.4000113  37.3633833   4.1301673
  33.4330113  37.0033833   4.8251673  34.0050113  44.9663833   3.2961673
  34.4810113  44.2373833   3.2481673  33.1840113  44.6803833   3.2201673
  33.9540113  44.8163833   3.2771673  27.4760113  46.8783833  14.1351673
  26.6810113  46.8143833  14.4861673  27.5470113  47.7253833  13.9401673
  27.3690113  46.9933833  14.1581673  18.4000113  36.2363833  15.3821673
  18.2600113  37.0313833  15.0511673  17.6140113  35.9933833  15.6711673
  18.2630113  36.3183833  15.3761673  23.3060113  53.0853833   9.4521673
  23.3170113  53.1443833  10.3221673  22.8810113  52.3383833   9.3021673
  23.2450113  52.9833833   9.5581673  21.4640113  38.9803833   2.6071673
  21.5900113  38.6513833   1.8091673  20.6520113  38.7313833   2.8061673
  21.3630113  38.8953833   2.5191673  30.2210113  46.1333833   5.6511673
  30.2970113  46.4743833   6.4501673  30.3900113  45.2863833   5.7721673
  30.2570113  46.0583833   5.7871673  27.7430113  45.4073833   5.2161673
  27.4450113  45.0923833   5.9731673  28.4380113  45.8803833   5.4511673
  27.8020113  45.4303833   5.3631673  27.9650113  49.5253833  13.2431673
  28.6520113  49.4113833  13.7681673  28.0990113  50.3163833  12.8991673
  28.0860113  49.6253833  13.2701673  36.1410113  42.1343833  15.0541673
  35.2860113  42.0123833  15.1801673  36.2940113  41.7393833  14.2911673
  36.0370113  42.0573833  14.9601673  30.6540113  42.7993833  13.6301673
  30.3990113  42.0803833  14.0521673  31.4750113  42.9153833  13.9001673
  30.7380113  42.7103833  13.7321673  20.0700113  52.5833833  14.8941673
  19.4160113  52.0143833  14.9921673  19.6950113  53.3563833  15.0451673
  19.9180113  52.6133833  14.9311673  28.5880113  43.9893833  16.8171673
  28.9110113  44.6753833  16.3851673  27.8840113  44.3123833  17.2191673
  28.5310113  44.1383833  16.8121673  31.6720113  52.3633833   7.7461673
  31.2210113  53.0063833   8.1251673  32.3800113  52.2843833   8.2511673
  31.7100113  52.4463833   7.8771673  28.3730113  47.4533833  10.6761673
  27.6790113  47.8553833  11.0191673  29.0500113  47.8863833  11.0151673
  28.3700113  47.5763833  10.7771673  33.7500113  50.0463833  17.2561673
  34.5260113  49.6563833  17.3391673  33.2810113  49.7103833  17.9111673
  33.7950113  49.9393833  17.3651673  21.4410113  40.9913833  13.0231673
  21.8160113  41.6103833  12.5361673  22.1150113  40.5173833  13.3081673
  21.5960113  41.0133833  12.9931673  19.2160113  39.4393833  12.2981673
  19.2930113  39.2703833  11.4451673  19.9620113  39.8453833  12.4951673
  19.3370113  39.4743833  12.2011673  34.7750113  42.0793833   2.7381673
  34.8780113  42.0213833   1.8741673  35.5160113  41.7473833   3.0561673
  34.9000113  42.0223833   2.6571673  21.7700113  36.8493833  14.7091673
  21.6890113  36.0053833  14.9151673  21.4560113  36.8933833  13.8961673
  21.7120113  36.7313833  14.6191673  28.6950113  49.0443833   3.8451673
  28.4900113  49.8773833   3.6861673  27.9200113  48.6623833   3.9671673
  28.5500113  49.1113833   3.8401673  33.8770113  42.2253833  12.0941673
  33.8750113  41.3623833  12.2181673  33.9440113  42.5493833  12.9011673
  33.8870113  42.1453833  12.2311673  18.6130113  44.6653833  12.5221673
  18.9330113  44.8843833  11.7411673  18.5130113  43.8003833  12.4671673
  18.6450113  44.5703833  12.3991673  29.7560113  37.0253833  15.8761673
  29.8480113  37.7373833  16.3701673  29.1190113  36.5803833  16.2731673
  29.6750113  37.0643833  16.0081673  28.7500113  37.2153833   6.7301673
  28.0500113  37.7333833   6.6741673  28.7880113  36.8353833   5.9461673
  28.6520113  37.2363833   6.6061673  32.3480113  37.7313833   9.5301673
  33.2030113  37.8303833   9.6751673  31.9790113  38.2843833  10.0951673
  32.4200113  37.8283833   9.6351673  23.3760113  43.9573833  13.9071673
  22.9800113  44.7313833  13.9821673  22.9700113  43.5843833  13.2311673
  23.2580113  44.0163833  13.8181673  32.6520113  43.0113833   8.0211673
  33.3180113  43.5523833   8.1811673  32.3070113  43.3223833   7.2821673
  32.6990113  43.1373833   7.9361673  32.9650113  51.0773833   3.8281673
  32.7910113  50.4233833   4.3781673  33.6780113  50.8063833   3.4051673
  33.0450113  50.9403833   3.8471673  23.8050113  36.9343833  11.3571673
  22.9410113  37.0183833  11.4371673  24.0250113  36.4203833  12.0261673
  23.7100113  36.8713833  11.4681673  35.8230113  35.5693833  12.6861673
  35.7710113  35.5253833  13.5561673  36.5100113  35.0663833  12.4961673
  35.9170113  35.4893833  12.7861673  27.9080113  37.6823833   9.7311673
  27.1710113  37.2283833   9.8441673  28.4790113  37.2803833  10.2541673
  27.8830113  37.5553833   9.8251673  30.6400113  48.5303833  11.5191673
  30.8460113  48.8313833  12.3111673  30.5790113  49.2523833  11.0341673
  30.6610113  48.6813833  11.5641673  30.1740113  52.7443833  15.7651673
  29.4210113  52.7263833  15.3241673  30.3420113  53.5963833  15.8491673
  30.0880113  52.8673833  15.7121673  25.4110113  42.0113833  14.9351673
  25.0890113  41.4353833  14.3651673  25.0520113  42.7663833  14.6891673
  25.3110113  42.0373833  14.8151673  35.4520113  47.1693833  10.9771673
  35.4200113  46.3073833  10.8421673  34.7590113  47.4713833  10.5431673
  35.3450113  47.0863833  10.8931673  23.8460113  52.3673833  15.1831673
  23.8870113  52.4933833  16.0461673  24.4970113  51.8073833  15.0271673
  23.9480113  52.3033833  15.2881673  33.5570113  50.4293833   9.7741673
  34.0840113  50.3463833   9.0831673  33.1660113  49.6513833   9.8281673
  33.5770113  50.3023833   9.6801673  21.0250113  37.0173833  12.0051673
  20.6820113  36.2503833  11.7711673  20.3300113  37.5413833  12.0691673
  20.8720113  36.9813833  11.9801673  30.0710113  35.8733833   8.9821673
  30.7410113  36.4173833   9.1091673  29.5680113  36.2973833   8.4091673
  30.0960113  36.0163833   8.9161673  21.4390113  50.7503833  16.5431673
  22.0340113  51.1813833  17.0151673  21.0750113  51.3743833  16.0541673
  21.4730113  50.9063833  16.5401673  29.4300113  41.6813833   6.4751673
  29.9810113  41.0743833   6.7751673  29.0050113  41.9443833   7.1901673
  29.4490113  41.6303833   6.6241673  19.6780113  40.3313833   5.9611673
  19.3100113  40.6333833   6.6921673  20.2120113  39.7023833   6.2451673
  19.7020113  40.2833833   6.1111673  19.3660113  48.7393833  13.4721673
  18.7920113  49.1553833  13.9811673  20.0990113  49.2043833  13.5671673
  19.3900113  48.8693833  13.5611673  31.4000113  43.5123833   3.0371673
  31.4680113  42.6623833   3.2181673  30.5770113  43.5983833   2.7591673
  31.2880113  43.3993833   3.0231673  21.1520113  52.0063833   2.2471673
  21.0070113  52.1623833   1.4011673  22.0180113  52.0853833   2.3251673
  21.2590113  52.0413833   2.1341673  34.6740113  44.8853833  16.1881673
  35.3080113  44.7153833  16.7621673  35.0910113  45.2883833  15.5361673
  34.8290113  44.9203833  16.1771673  30.5540113  48.7323833   1.7771673
  30.3030113  48.6043833   2.6031673  30.2370113  48.0373833   1.3561673
  30.4700113  48.6113833   1.8371673  35.2990113  39.4493833  16.9261673
  35.1030113  40.0933833  17.4811673  34.5770113  38.9593833  16.9181673
  35.1640113  39.4723833  17.0071673  35.1980113  40.3903833   9.8971673
  34.3650113  40.6403833   9.8251673  35.1420113  39.5503833  10.1261673
  35.0670113  40.3033833   9.9201673  24.4580113  37.3783833  15.0911673
  24.6920113  36.8023833  14.4781673  23.6160113  37.1973833  15.2321673
  24.3680113  37.2663833  15.0211673  32.0850113  44.9963833  17.5431673
  32.9560113  44.9603833  17.5071673  31.8660113  45.4163833  16.8111673
  32.1820113  45.0523833  17.4301673  21.8390113  50.8213833   8.7241673
  21.7600113  50.0113833   8.4081673  21.3950113  51.3083833   8.1521673
  21.7620113  50.7733833   8.5931673  19.4110113  53.0653833  12.3051673
  19.9040113  53.0093833  13.0231673  19.5990113  52.3323833  11.8701673
  19.5120113  52.9483833  12.3471673  28.8490113  17.1032753  80.4771313
  28.6040113  17.5912753  79.7971313  29.7120113  17.0302753  80.3771313
  28.9400113  17.1642753  80.3621313  28.6580113  24.0192753  85.1481313
  28.1340113  24.6152753  85.5111313  29.0550113  23.6512753  85.8321313
  28.6390113  24.0532753  85.3031313  18.5270113  28.1592753  80.6041313
  18.0860113  28.2772753  81.3471313  18.2440113  27.3842753  80.3191313
  18.4200113  28.0622753  80.6721313  34.8020113  31.4602753  78.1191313
  35.5030113  30.9412753  78.1151313  34.2150113  31.0152753  77.6501313
  34.8190113  31.3172753  78.0491313  18.2700113  21.9512753  77.1111313
  17.4920113  22.1132753  76.7511313  18.3090113  21.0802753  77.1331313
  18.1610113  21.8462753  77.0611313  21.4090113  27.2142753  75.7831313
  21.0170113  26.8432753  75.0971313  21.3290113  26.6162753  76.4121313
  21.3390113  27.0712753  75.7741313  31.3290113  25.0862753  81.8241313
  31.4090113  25.0902753  80.9551313  30.7450113  24.4542753  81.9731313
  31.2540113  24.9932753  81.7181313  21.0360113  28.8552753  79.6831313
  21.6440113  28.6852753  80.2861313  20.2850113  28.7152753  80.1041313
  21.0150113  28.8092753  79.8341313  25.3180113  18.1902753  79.6321313
  25.2480113  18.8672753  79.0861313  26.0590113  17.8022753  79.3831313
  25.4170113  18.2332753  79.5141313  19.9270113  31.9462753  75.7601313
  20.3940113  32.0302753  75.0281313  20.3820113  31.3682753  76.2291313
  20.0630113  31.8732753  75.7211313  18.4670113  30.8942753  86.8591313
  18.5960113  30.6142753  87.6751313  17.8570113  30.3532753  86.5501313
  18.3960113  30.7732753  86.9341313  19.9130113  25.4152753  81.0611313
  19.4510113  25.0232753  80.4341313  20.6130113  24.9022753  81.1531313
  19.9480113  25.2822753  80.9821313  24.4210113  21.0252753  86.4081313
  25.0990113  21.0432753  85.8591313  24.3760113  20.1892753  86.6531313
  24.5140113  20.9042753  86.3631313  25.0230113  31.6112753  89.1891313
  25.1610113  32.3712753  88.7821313  25.8140113  31.2462753  89.2161313
  25.1600113  31.6702753  89.1331313  21.9140113  23.5152753  81.0841313
  22.7310113  23.3282753  81.3271313  21.4370113  22.9012753  81.4801313
  21.9640113  23.3972753  81.1791313  26.1180113  29.4962753  83.6941313
  26.4660113  28.6972753  83.7241313  26.7830113  30.0002753  83.4391313
  26.2680113  29.4522753  83.6611313  26.1750113  28.9452753  79.9051313
  26.5060113  28.3012753  80.3911313  26.4150113  28.7342753  79.0941313
  26.2590113  28.8192753  79.8571313  22.5110113  18.6092753  80.3501313
  22.2150113  19.1102753  79.7001313  23.3780113  18.6872753  80.2931313
  22.5950113  18.6952753  80.2461313  32.7010113  16.0362753  90.3581313
  32.5430113  16.8052753  89.9761313  31.9290113  15.8162753  90.7021313
  32.5630113  16.1172753  90.3531313  25.4900113  17.7512753  82.5731313
  25.5630113  18.6112753  82.7021313  25.4520113  17.6762753  81.7051313
  25.4950113  17.8672753  82.4641313  30.1630113  20.6772753  74.8721313
  29.7130113  21.3582753  75.1791313  30.2770113  20.1732753  75.5751313
  30.1140113  20.7032753  75.0211313  18.3690113  23.1762753  84.0741313
  18.1130113  24.0072753  83.9991313  17.7050113  22.7932753  84.4911313
  18.2330113  23.2422753  84.1251313  18.2790113  32.8862753  81.9741313
  17.6870113  33.4442753  81.6611313  18.7050113  32.6172753  81.2621313
  18.2550113  32.9282753  81.8231313  24.1190113  30.7302753  79.4541313
  23.5400113  30.4552753  80.0461313  24.7430113  30.1212753  79.4791313
  24.1260113  30.6002753  79.5451313  30.2620113  33.0182753  76.9761313
  30.9890113  33.4902753  77.0781313  30.4910113  32.2242753  77.2561313
  30.4040113  32.9712753  77.0331313  28.4300113  33.4102753  78.9661313
  28.6440113  33.9372753  79.6281313  29.1970113  33.2362753  78.5871313
  28.5750113  33.4622753  79.0081313  21.3980113  17.9932753  84.5651313
  20.8770113  17.3652753  84.2571313  21.9890113  17.5562753  85.0361313
  21.4090113  17.8352753  84.5891313  19.8240113  31.5562753  79.9051313
  20.4800113  30.9812753  79.9201313  20.2130113  32.3052753  79.6841313
  19.9790113  31.5812753  79.8751313  35.5570113  20.6502753  81.1671313
  35.2110113  21.3282753  81.5931313  34.9210113  20.0522753  81.1831313
  35.4120113  20.6622753  81.2321313  30.8690113  33.4202753  87.2711313
  31.6130113  33.8762753  87.2611313  30.7480113  33.2062753  86.4341313
  30.9610113  33.4562753  87.1461313  20.6420113  30.0432753  83.4051313
  21.0650113  29.6872753  82.7311313  20.9660113  29.6212753  84.0971313
  20.7520113  29.9282753  83.4081313  23.8730113  32.8952753  82.7011313
  24.7170113  32.9992753  82.5061313  23.5760113  33.7132753  82.7691313
  23.9540113  33.0312753  82.6821313  27.6800113  22.2922753  80.7881313
  27.9670113  22.0602753  79.9981313  28.4120113  22.3712753  81.2571313
  27.8300113  22.2692753  80.7411313  28.4020113  22.6312753  75.9091313
  28.6830113  23.4192753  76.1581313  27.6260113  22.7962753  75.5461313
  28.3290113  22.7722753  75.8921313  32.4430113  34.6052753  77.3761313
  33.1080113  34.4572753  76.8311313  32.8030113  34.5222753  78.1661313
  32.5950113  34.5712753  77.4121313  22.8710113  34.1142753  88.4411313
  23.1630113  34.0472753  89.2611313  22.2450113  33.5092753  88.3961313
  22.8220113  34.0152753  88.5561313  35.2320113  18.9732753  86.5361313
  35.9890113  19.0452753  86.1081313  35.2950113  18.2002753  86.9351313
  35.3530113  18.8702753  86.5311313  17.7850113  20.2712753  90.4331313
  17.7810113  20.8582753  91.0791313  18.3790113  20.5832753  89.8761313
  17.8720113  20.4042753  90.4461313  27.2610113  30.8022753  75.7251313
  27.0800113  31.3472753  76.3821313  28.0270113  31.0922753  75.4241313
  27.3470113  30.9262753  75.7781313  30.7680113  18.6982753  76.7791313
  31.3080113  18.0162753  76.8551313  30.8300113  19.0962753  77.5531313
  30.8570113  18.6562753  76.9051313  18.7220113  19.8662753  79.3481313
  18.6080113  19.0022753  79.3791313  18.2470113  20.1602753  80.0181313
  18.6350113  19.7822753  79.4511313  20.8640113  32.2762753  87.5631313
  20.1660113  31.7682753  87.6891313  21.1240113  32.0712753  86.7551313
  20.7990113  32.1712753  87.4621313  28.0260113  21.0742753  78.0931313
  27.5180113  20.4122753  77.8391313  28.0780113  21.5782753  77.3831313
  27.9590113  21.0512753  77.9511313  28.5750113  33.7692753  88.4731313
  29.3430113  33.6892753  88.0671313  27.9920113  33.6482753  87.8351313
  28.6020113  33.7392753  88.3191313  28.0260113  18.0152753  77.9841313
  27.5710113  17.6132753  77.3581313  28.7990113  18.1702753  77.6091313
  28.0730113  17.9792753  77.8361313  34.8520113  34.3722753  81.3741313
  34.3970113  35.0892753  81.5751313  34.2380113  33.8012753  81.1321313
  34.6940113  34.3942753  81.3681313  26.6240113  20.3822753  82.5061313
  26.6980113  20.9502753  81.8481313  26.7450113  20.8742753  83.2161313
  26.6520113  20.5392753  82.5141313  31.8490113  30.2172753  80.9181313
  32.5500113  29.7352753  81.1071313  31.1890113  29.6482753  80.9631313
  31.8550113  30.0622753  80.9521313  22.2250113  31.1272753  90.1301313
  23.0660113  31.1902753  89.9081313  22.1880113  31.5242753  90.9061313
  22.3440113  31.1952753  90.2121313  21.2320113  16.2052753  80.8541313
  21.7680113  16.8932753  80.8441313  21.2350113  15.9312753  80.0261313
  21.3110113  16.2662753  80.7301313  24.1880113  26.6382753  84.8791313
  24.3600113  26.4282753  85.7081313  23.5330113  26.1042753  84.6631313
  24.1170113  26.5282753  84.9701313  30.4160113  20.5522753  88.3941313
  30.3210113  20.8712753  89.2001313  29.8230113  19.9132753  88.3561313
  30.3140113  20.5042753  88.5081313  24.9380113  26.5762753  87.4691313
  24.9910113  27.4232753  87.6711313  24.6530113  26.2062753  88.2061313
  24.9040113  26.6462753  87.6071313  31.1150113  27.2712753  86.5991313
  30.6010113  26.8592753  87.1701313  30.9890113  28.1152753  86.7801313
  31.0210113  27.3352753  86.7101313  31.6720113  16.4962753  81.2301313
  31.7210113  16.1782753  82.0411313  31.9950113  15.8522753  80.7371313
  31.7270113  16.3542753  81.2771313  34.1360113  20.7322753  89.5381313
  34.9080113  20.5072753  89.8751313  33.6610113  20.9492753  90.2381313
  34.1800113  20.7312753  89.6911313  21.6800113  20.0152753  82.5081313
  21.9520113  19.5852753  81.8001313  21.5040113  19.3792753  83.0791313
  21.6940113  19.8582753  82.4881313  34.3680113  27.7102753  76.7261313
  34.4870113  27.4232753  77.5411313  35.1750113  27.7312753  76.3961313
  34.5040113  27.6712753  76.7981313  21.5040113  27.4422753  82.0571313
  22.3550113  27.3622753  81.8841313  21.1470113  26.7602753  81.6451313
  21.5770113  27.3292753  81.9701313  20.2710113  34.1672753  83.2941313
  19.5980113  33.6692753  83.0491313  20.6740113  34.3522753  82.5431313
  20.2310113  34.1212753  83.1471313  19.8210113  21.1172753  85.5901313
  20.6640113  21.3372753  85.5471313  19.4320113  21.6902753  85.0591313
  19.8880113  21.2342753  85.5051313  23.8720113  27.4492753  80.2921313
  24.5850113  27.9442753  80.3821313  24.0940113  26.8822753  79.6661313
  24.0100113  27.4382753  80.2131313  36.4500113  19.1082753  75.7641313
  35.7880113  18.5402753  75.7871313  36.2570113  19.6202753  75.0841313
  36.3240113  19.1002753  75.6671313  18.0280113  29.0922753  83.6121313
  17.3610113  29.5802753  83.8881313  18.7080113  29.6372753  83.6411313
  18.0300113  29.2442753  83.6571313  36.7730113  23.4862753  88.3201313
  36.9880113  22.6862753  88.0441313  35.9230113  23.5462753  88.1311313
  36.6790113  23.3772753  88.2511313  18.0940113  25.7762753  78.7151313
  17.9090113  24.9372753  78.8671313  18.7530113  25.7402753  78.1451313
  18.1640113  25.6472753  78.6531313  34.4520113  18.6662753  78.0431313
  35.1980113  18.2592753  78.2421313  34.7150113  19.3812753  77.6181313
  34.6010113  18.7122753  78.0101313  28.3950113  31.1522753  82.6191313
  27.8720113  31.7862753  82.3261313  28.7050113  30.7882753  81.8901313
  28.3630113  31.1922753  82.4681313  18.2660113  29.9402753  78.2901313
  18.8180113  30.5092753  78.6541313  18.0340113  29.4252753  78.9551313
  18.3130113  29.9482753  78.4421313  22.4700113  28.9402753  85.3791313
  22.9370113  29.2292753  86.0571313  23.0420113  28.4622753  84.9251313
  22.6240113  28.9122753  85.4121313  30.9060113  20.9542753  83.1161313
  31.2500113  21.1062753  83.9031313  30.4530113  20.2162753  83.2291313
  30.8900113  20.8672753  83.2491313  18.0960113  28.3892753  75.9181313
  18.8520113  27.9572753  75.9761313  18.1110113  28.9212753  76.6091313
  18.2100113  28.4042753  76.0291313  19.0360113  26.6102753  83.9231313
  19.4670113  26.4812753  83.1761313  18.8310113  27.4582753  83.8971313
  19.0690113  26.7162753  83.8091313  25.3820113  20.1742753  77.5731313
  25.3800113  20.0572753  76.7081313  25.2010113  21.0222753  77.6651313
  25.3550113  20.2822753  77.4591313  34.4360113  32.6012753  89.0701313
  33.7650113  33.1152753  89.2881313  34.4990113  32.7012753  88.2061313
  34.3460113  32.6922753  88.9751313  23.1200113  30.1262753  82.2051313
  23.2460113  30.9692753  82.3921313  23.7880113  29.7272753  82.6011313
  23.2380113  30.1922753  82.2911313  21.7350113  23.0062753  77.2071313
  21.6070113  22.5582753  77.9451313  21.1530113  22.6642753  76.6551313
  21.6300113  22.8892753  77.2351313  21.9020113  24.8362753  83.8061313
  21.1210113  24.7772753  83.4231313  21.9740113  24.0842753  84.2431313
  21.7970113  24.7172753  83.8141313  22.3320113  24.5732753  87.2741313
  22.3570113  23.8982753  86.7231313  21.6860113  25.0692753  86.9621313
  22.2410113  24.5462753  87.1471313  32.2270113  22.2862753  85.6701313
  31.5650113  22.6142753  86.1331313  32.4140113  22.9202753  85.1011313
  32.1570113  22.4282753  85.6541313  26.4320113  33.3502753  86.6661313
  26.1550113  32.7092753  86.1431313  26.2240113  34.0762753  86.2281313
  26.3610113  33.3632753  86.5241313  28.8720113  18.1922753  89.0991313
  29.0210113  17.3672753  88.8561313  29.2510113  18.2472753  89.8831313
  28.9500113  18.0782753  89.1791313  30.4200113  20.2552753  79.1811313
  30.9100113  20.9722753  79.1041313  29.6300113  20.5162753  78.9181313
  30.3760113  20.3992753  79.1311313  31.7340113  28.1332753  91.0911313
  32.2180113  28.8512753  91.1891313  32.1280113  27.7062753  90.4401313
  31.8640113  28.1762753  91.0091313  27.0020113  21.7252753  84.9061313
  27.4820113  22.4242753  85.1141313  27.3750113  21.0782753  85.3571313
  27.1280113  21.7332753  85.0031313  29.1910113  24.8942753  77.1801313
  29.1830113  25.6162753  76.6901313  28.5520113  25.0292753  77.7571313
  29.0960113  25.0212753  77.1931313  34.1630113  28.7642753  81.1611313
  34.5190113  28.4142753  81.8761313  34.1550113  28.1032753  80.5911313
  34.2150113  28.6142753  81.1821313  30.2080113  31.8302753  85.0051313
  29.6050113  31.5342753  84.4481313  30.7530113  32.2822753  84.4961313
  30.1990113  31.8532753  84.8471313  30.2210113  28.6812753  84.4051313
  29.4240113  28.9052753  84.6791313  30.4790113  28.0872753  84.9901313
  30.1410113  28.6262753  84.5321313  24.1130113  33.4932753  78.8531313
  23.9660113  32.7172753  79.2241313  24.8020113  33.3462753  78.3381313
  24.1930113  33.3562753  78.8321313  23.7840113  17.2362753  76.8411313
  23.8810113  17.1292753  77.7021313  23.0760113  17.7422753  76.7761313
  23.6940113  17.2952753  76.9591313  26.4050113  33.0092753  77.2551313
  27.0270113  33.1722753  77.8451313  26.4410113  33.7002753  76.7231313
  26.5020113  33.1352753  77.2641313  33.4810113  26.6792753  89.2511313
  33.5360113  26.8042753  88.3891313  34.2340113  26.9992753  89.5531313
  33.6000113  26.7442753  89.1681313  20.9060113  25.5432753  78.0841313
  21.2300113  24.7642753  77.8621313  21.5520113  25.9112753  78.5391313
  21.0490113  25.4822753  78.1181313  29.2120113  26.4852753  88.8511313
  29.0570113  27.0952753  89.4551313  29.7460113  25.9272753  89.2571313
  29.2680113  26.4932753  89.0001313  17.9030113  17.2042753  79.0521313
  18.0320113  16.4962753  78.5601313  17.5360113  16.8862753  79.7771313
  17.8680113  17.0522753  79.0871313  27.5960113  24.8852753  79.5091313
  27.6550113  25.5352753  80.0881313  27.4070113  24.1892753  80.0001313
  27.5770113  24.8782753  79.6671313  32.8220113  29.2142753  85.3781313
  32.3430113  29.5122753  84.7121313  32.4660113  28.4382753  85.5561313
  32.6990113  29.1432753  85.3061313  22.0920113  19.4022753  76.0211313
  21.5810113  19.4552753  75.3151313  22.8760113  19.6422753  75.7251313
  22.1320113  19.4452753  75.8731313  26.8190113  26.9322753  83.9401313
  25.9720113  26.7382753  84.0211313  27.1430113  26.7672753  84.7331313
  26.7410113  26.8792753  84.0691313  23.5710113  33.6622753  74.8261313
  24.0100113  32.9652753  75.1141313  23.7780113  34.2862753  75.3991313
  23.6670113  33.6512753  74.9531313  20.6670113  26.6252753  86.2561313
  21.3890113  27.1132753  86.2191313  20.3970113  26.5952753  85.4271313
  20.7340113  26.6932753  86.1281313  23.8970113  21.7962753  82.9911313
  24.7430113  21.6062753  83.0891313  23.5270113  21.0192753  82.8531313
  23.9670113  21.6532753  82.9851313  36.5140113  33.3802753  77.3181313
  37.2080113  32.9132753  77.0701313  35.9750113  32.7822753  77.6551313
  36.5370113  33.2222753  77.3311313  18.7180113  23.1342753  79.6461313
  19.2070113  22.8422753  80.3071313  18.8470113  22.5412753  79.0191313
  18.8090113  23.0032753  79.6511313  33.7530113  26.1562753  86.4971313
  33.7460113  25.3802753  86.8951313  32.9120113  26.3902753  86.4901313
  33.6280113  26.0762753  86.5551313  23.2430113  24.5682753  75.1321313
  22.6330113  24.1632753  75.6061313  22.8570113  24.6862753  74.3591313
  23.0960113  24.5252753  75.0881313  20.0620113  27.6772753  90.5341313
  19.6410113  27.1592753  89.9731313  19.7100113  28.4632753  90.3911313
  19.9480113  27.7172753  90.4301313  35.0090113  26.2272753  83.9341313
  34.7230113  26.6282753  84.6541313  35.8690113  26.1652753  84.0611313
  35.0940113  26.2772753  84.0591313  24.6980113  23.0292753  77.8421313
  24.9700113  23.8552753  77.9091313  23.8350113  23.1042753  77.7461313
  24.6110113  23.1622753  77.8371313  18.1780113  18.9992753  84.3781313
  18.2220113  19.3432753  83.5771313  18.9330113  19.2362753  84.7451313
  18.2960113  19.0852753  84.3141313  36.1400113  31.8602753  84.4631313
  36.4300113  32.1172753  83.6821313  36.8350113  31.9562753  84.9821313
  36.2860113  31.9122753  84.4241313  32.7450113  30.4632753  76.4451313
  33.0790113  29.6572753  76.4801313  31.9900113  30.3912753  76.8751313
  32.6830113  30.3332753  76.5141313  33.2270113  22.2972753  82.1041313
  32.4820113  21.9742753  82.4221313  33.2290113  23.1232753  82.3841313
  33.1170113  22.3712753  82.1921313  35.6670113  28.2572753  89.8561313
  36.2950113  27.7082753  89.6001313  35.6060113  28.8222753  89.1941313
  35.7510113  28.2602753  89.7201313  30.1190113  28.3382753  75.8481313
  30.8030113  27.8242753  75.6791313  29.7020113  28.3842753  75.0831313
  30.1580113  28.2692753  75.7101313  24.8010113  29.4882753  87.1521313
  24.5030113  30.0802753  87.7191313  24.8560113  29.9302753  86.4031313
  24.7650113  29.6412753  87.1251313  22.7800113  28.4382753  90.5501313
  21.9740113  28.1482753  90.7171313  22.6910113  29.3062753  90.5561313
  22.6480113  28.5232753  90.5751313  32.1390113  18.6272753  89.5651313
  32.8830113  19.0792753  89.5021313  31.5730113  19.0972753  89.0961313
  32.1660113  18.7642753  89.4871313  27.3170113  25.9112753  86.6431313
  27.7930113  26.2852753  87.2711313  26.4940113  26.0452753  86.9021313
  27.2660113  25.9862753  86.7741313  24.0270113  21.5142753  89.3841313
  24.1880113  20.7702753  89.8111313  23.9820113  21.2652753  88.5491313
  24.0440113  21.3672753  89.3241313  26.5810113  33.3042753  81.8711313
  27.1270113  33.9832753  81.9251313  26.2310113  33.3862753  81.0761313
  26.6100113  33.4172753  81.7611313  33.4240113  16.6072753  87.2351313
  33.1440113  17.4322753  87.1911313  34.1400113  16.6602753  87.7311313
  33.4890113  16.7372753  87.3021313  25.7790113  17.3222753  89.2641313
  26.4840113  17.6422753  88.8621313  26.0200113  16.5152753  89.4911313
  25.9180113  17.2502753  89.2381313  24.7640113  31.5322753  85.2601313
  24.1400113  32.1142753  85.0781313  25.0120113  31.2462753  84.4741313
  24.7080113  31.5762753  85.1171313  34.8450113  22.8622753  76.0921313
  35.2230113  23.5392753  75.6921313  34.0030113  23.0862753  76.1231313
  34.7760113  22.9952753  76.0371313  26.3580113  26.3082753  75.1751313
  25.5530113  26.1312753  74.8901313  26.3250113  27.1592753  75.3671313
  26.2340113  26.4072753  75.1621313  22.2880113  22.3752753  85.3251313
  22.7280113  22.2722753  84.5791313  22.8330113  22.0622753  85.9301313
  22.4330113  22.3142753  85.3041313  29.9920113  23.0142753  87.2151313
  30.2940113  23.4342753  87.9181313  30.0280113  22.1742753  87.4471313
  30.0420113  22.9522753  87.3531313  32.5400113  22.4612753  79.4671313
  32.7470113  22.2602753  80.2911313  33.2960113  22.7292753  79.1251313
  32.6820113  22.4712753  79.5381313  25.8350113  17.3602753  85.3721313
  25.0090113  17.2112753  85.6091313  25.7950113  17.3952753  84.5011313
  25.7070113  17.3432753  85.2781313  33.5620113  18.5442753  80.9411313
  32.8480113  18.0732753  81.1121313  33.4000113  18.8852753  80.1551313
  33.4330113  18.5252753  80.8501313  34.0050113  26.4882753  79.3211313
  34.4810113  25.7592753  79.2731313  33.1840113  26.2022753  79.2451313
  33.9540113  26.3382753  79.3021313  27.4760113  28.4002753  90.1601313
  26.6810113  28.3362753  90.5111313  27.5470113  29.2472753  89.9651313
  27.3690113  28.5152753  90.1831313  23.3060113  34.6072753  85.4771313
  23.3170113  34.6662753  86.3471313  22.8810113  33.8602753  85.3271313
  23.2450113  34.5052753  85.5831313  21.4640113  20.5022753  78.6321313
  21.5900113  20.1732753  77.8341313  20.6520113  20.2532753  78.8311313
  21.3630113  20.4172753  78.5441313  30.2210113  27.6552753  81.6761313
  30.2970113  27.9962753  82.4751313  30.3900113  26.8082753  81.7971313
  30.2570113  27.5802753  81.8121313  27.7430113  26.9292753  81.2411313
  27.4450113  26.6142753  81.9981313  28.4380113  27.4022753  81.4761313
  27.8020113  26.9522753  81.3881313  27.9650113  31.0472753  89.2681313
  28.6520113  30.9332753  89.7931313  28.0990113  31.8382753  88.9241313
  28.0860113  31.1472753  89.2951313  36.1410113  23.6562753  91.0791313
  35.2860113  23.5342753  91.2051313  36.2940113  23.2612753  90.3161313
  36.0370113  23.5792753  90.9851313  30.6540113  24.3212753  89.6551313
  30.3990113  23.6022753  90.0771313  31.4750113  24.4372753  89.9251313
  30.7380113  24.2322753  89.7571313  20.0700113  34.1052753  90.9191313
  19.4160113  33.5362753  91.0171313  19.6950113  34.8782753  91.0701313
  19.9180113  34.1352753  90.9561313  31.6720113  33.8852753  83.7711313
  31.2210113  34.5282753  84.1501313  32.3800113  33.8062753  84.2761313
  31.7100113  33.9682753  83.9021313  28.3730113  28.9752753  86.7011313
  27.6790113  29.3772753  87.0441313  29.0500113  29.4082753  87.0401313
  28.3700113  29.0982753  86.8021313  21.4410113  22.5132753  89.0481313
  21.8160113  23.1322753  88.5611313  22.1150113  22.0392753  89.3331313
  21.5960113  22.5352753  89.0181313  19.2160113  20.9612753  88.3231313
  19.2930113  20.7922753  87.4701313  19.9620113  21.3672753  88.5201313
  19.3370113  20.9962753  88.2261313  34.7750113  23.6012753  78.7631313
  34.8780113  23.5432753  77.8991313  35.5160113  23.2692753  79.0811313
  34.9000113  23.5442753  78.6821313  21.7700113  18.3712753  90.7341313
  21.6890113  17.5272753  90.9401313  21.4560113  18.4152753  89.9211313
  21.7120113  18.2532753  90.6441313  28.6950113  30.5662753  79.8701313
  28.4900113  31.3992753  79.7111313  27.9200113  30.1842753  79.9921313
  28.5500113  30.6332753  79.8651313  33.8770113  23.7472753  88.1191313
  33.8750113  22.8842753  88.2431313  33.9440113  24.0712753  88.9261313
  33.8870113  23.6672753  88.2561313  18.6130113  26.1872753  88.5471313
  18.9330113  26.4062753  87.7661313  18.5130113  25.3222753  88.4921313
  18.6450113  26.0922753  88.4241313  20.0690113  22.1232753  75.1651313
  19.3970113  22.1372753  75.7211313  20.1640113  21.2752753  74.9811313
  19.9840113  22.0002753  75.2201313  28.7500113  18.7372753  82.7551313
  28.0500113  19.2552753  82.6991313  28.7880113  18.3572753  81.9711313
  28.6520113  18.7582753  82.6311313  24.0570113  30.8282753  76.2791313
  24.4980113  30.9082753  77.0271313  23.2520113  30.6122753  76.5371313
  24.0030113  30.8082753  76.4281313  32.3480113  19.2532753  85.5551313
  33.2030113  19.3522753  85.7001313  31.9790113  19.8062753  86.1201313
  32.4200113  19.3502753  85.6601313  23.3760113  25.4792753  89.9321313
  22.9800113  26.2532753  90.0071313  22.9700113  25.1062753  89.2561313
  23.2580113  25.5382753  89.8431313  32.6520113  24.5332753  84.0461313
  33.3180113  25.0742753  84.2061313  32.3070113  24.8442753  83.3071313
  32.6990113  24.6592753  83.9611313  32.9650113  32.5992753  79.8531313
  32.7910113  31.9452753  80.4031313  33.6780113  32.3282753  79.4301313
  33.0450113  32.4622753  79.8721313  21.3860113  29.8982753  76.8801313
  21.1420113  29.5912753  77.6601313  21.3530113  29.1952753  76.3641313
  21.3450113  29.7492753  76.9191313  24.2050113  28.1432753  75.6231313
  23.3870113  27.8752753  75.7631313  24.1770113  28.9952753  75.8081313
  24.0800113  28.2302753  75.6711313  23.8050113  18.4562753  87.3821313
  22.9410113  18.5402753  87.4621313  24.0250113  17.9422753  88.0511313
  23.7100113  18.3932753  87.4931313  35.8230113  17.0912753  88.7111313
  35.7710113  17.0472753  89.5811313  36.5100113  16.5882753  88.5211313
  35.9170113  17.0112753  88.8111313  27.9080113  19.2042753  85.7561313
  27.1710113  18.7502753  85.8691313  28.4790113  18.8022753  86.2791313
  27.8830113  19.0772753  85.8501313  30.6400113  30.0522753  87.5441313
  30.8460113  30.3532753  88.3361313  30.5790113  30.7742753  87.0591313
  30.6610113  30.2032753  87.5891313  25.4110113  23.5332753  90.9601313
  25.0890113  22.9572753  90.3901313  25.0520113  24.2882753  90.7141313
  25.3110113  23.5592753  90.8401313  26.2070113  16.7852753  75.5871313
  26.2850113  17.0322753  74.7541313  25.4640113  17.1622753  75.8451313
  26.1090113  16.8772753  75.5021313  35.4520113  28.6912753  87.0021313
  35.4200113  27.8292753  86.8671313  34.7590113  28.9932753  86.5681313
  35.3450113  28.6082753  86.9181313  33.5570113  31.9512753  85.7991313
  34.0840113  31.8682753  85.1081313  33.1660113  31.1732753  85.8531313
  33.5770113  31.8242753  85.7051313  21.0250113  18.5392753  88.0301313
  20.6820113  17.7722753  87.7961313  20.3300113  19.0632753  88.0941313
  20.8720113  18.5032753  88.0051313  30.0710113  17.3952753  85.0071313
  30.7410113  17.9392753  85.1341313  29.5680113  17.8192753  84.4341313
  30.0960113  17.5382753  84.9411313  29.4300113  23.2032753  82.5001313
  29.9810113  22.5962753  82.8001313  29.0050113  23.4662753  83.2151313
  29.4490113  23.1522753  82.6491313  19.6780113  21.8532753  81.9861313
  19.3100113  22.1552753  82.7171313  20.2120113  21.2242753  82.2701313
  19.7020113  21.8052753  82.1361313  19.3660113  30.2612753  89.4971313
  18.7920113  30.6772753  90.0061313  20.0990113  30.7262753  89.5921313
  19.3900113  30.3912753  89.5861313  31.4000113  25.0342753  79.0621313
  31.4680113  24.1842753  79.2431313  30.5770113  25.1202753  78.7841313
  31.2880113  24.9212753  79.0481313  21.1520113  33.5282753  78.2721313
  21.0070113  33.6842753  77.4261313  22.0180113  33.6072753  78.3501313
  21.2590113  33.5632753  78.1591313  25.3190113  25.9252753  78.0001313
  25.4190113  26.0642753  77.1451313  26.1370113  25.8652753  78.2961313
  25.4540113  25.9362753  77.9171313  34.4790113  33.9892753  75.4801313
  35.1160113  33.8552753  76.0611313  34.1380113  33.1952753  75.3631313
  34.5230113  33.8522753  75.5481313  30.5540113  30.2542753  77.8021313
  30.3030113  30.1262753  78.6281313  30.2370113  29.5592753  77.3811313
  30.4700113  30.1332753  77.8621313  35.1980113  21.9122753  85.9221313
  34.3650113  22.1622753  85.8501313  35.1420113  21.0722753  86.1511313
  35.0670113  21.8252753  85.9451313  24.4580113  18.9002753  91.1161313
  24.6920113  18.3242753  90.5031313  23.6160113  18.7192753  91.2571313
  24.3680113  18.7882753  91.0461313  21.8390113  32.3432753  84.7491313
  21.7600113  31.5332753  84.4331313  21.3950113  32.8302753  84.1771313
  21.7620113  32.2952753  84.6181313  27.4400113  28.4622753  77.2321313
  28.1570113  28.1152753  76.8761313  27.4060113  29.2622753  76.8841313
  27.5410113  28.5292753  77.1281313  19.4110113  34.5872753  88.3301313
  19.9040113  34.5312753  89.0481313  19.5990113  33.8542753  87.8951313
  19.5120113  34.4702753  88.3721313  28.8490113  17.1032753  61.4708903
  28.6040113  17.5912753  60.7908903  29.7120113  17.0302753  61.3708903
  28.9400113  17.1642753  61.3558903  28.6580113  24.0192753  66.1418903
  28.1340113  24.6152753  66.5048903  29.0550113  23.6512753  66.8258903
  28.6390113  24.0532753  66.2968903  18.5270113  28.1592753  61.5978903
  18.0860113  28.2772753  62.3408903  18.2440113  27.3842753  61.3128903
  18.4200113  28.0622753  61.6658903  18.2700113  21.9512753  58.1048903
  17.4920113  22.1132753  57.7448903  18.3090113  21.0802753  58.1268903
  18.1610113  21.8462753  58.0548903  21.4090113  27.2142753  56.7768903
  21.0170113  26.8432753  56.0908903  21.3290113  26.6162753  57.4058903
  21.3390113  27.0712753  56.7678903  31.3290113  25.0862753  62.8178903
  31.4090113  25.0902753  61.9488903  30.7450113  24.4542753  62.9668903
  31.2540113  24.9932753  62.7118903  21.0360113  28.8552753  60.6768903
  21.6440113  28.6852753  61.2798903  20.2850113  28.7152753  61.0978903
  21.0150113  28.8092753  60.8278903  25.3180113  18.1902753  60.6258903
  25.2480113  18.8672753  60.0798903  26.0590113  17.8022753  60.3768903
  25.4170113  18.2332753  60.5078903  19.9270113  31.9462753  56.7538903
  20.3940113  32.0302753  56.0218903  20.3820113  31.3682753  57.2228903
  20.0630113  31.8732753  56.7148903  18.4670113  30.8942753  67.8528903
  18.5960113  30.6142753  68.6688903  17.8570113  30.3532753  67.5438903
  18.3960113  30.7732753  67.9278903  25.0410113  28.4192753  72.9198903
  24.8050113  28.4162753  73.7598903  24.2930113  28.2712753  72.4958903
  24.8950113  28.3962753  72.9808903  19.9130113  25.4152753  62.0548903
  19.4510113  25.0232753  61.4278903  20.6130113  24.9022753  62.1468903
  19.9480113  25.2822753  61.9758903  24.4210113  21.0252753  67.4018903
  25.0990113  21.0432753  66.8528903  24.3760113  20.1892753  67.6468903
  24.5140113  20.9042753  67.3568903  25.0230113  31.6112753  70.1828903
  25.1610113  32.3712753  69.7758903  25.8140113  31.2462753  70.2098903
  25.1600113  31.6702753  70.1268903  21.9140113  23.5152753  62.0778903
  22.7310113  23.3282753  62.3208903  21.4370113  22.9012753  62.4738903
  21.9640113  23.3972753  62.1728903  26.1180113  29.4962753  64.6878903
  26.4660113  28.6972753  64.7178903  26.7830113  30.0002753  64.4328903
  26.2680113  29.4522753  64.6548903  26.1750113  28.9452753  60.8988903
  26.5060113  28.3012753  61.3848903  26.4150113  28.7342753  60.0878903
  26.2590113  28.8192753  60.8508903  28.1430113  23.0762753  72.2378903
  27.2950113  22.9772753  72.0598903  28.1720113  23.8212753  72.6918903
  28.0220113  23.1722753  72.2788903  22.5110113  18.6092753  61.3438903
  22.2150113  19.1102753  60.6938903  23.3780113  18.6872753  61.2868903
  22.5950113  18.6952753  61.2398903  32.7010113  16.0362753  71.3518903
  32.5430113  16.8052753  70.9698903  31.9290113  15.8162753  71.6958903
  32.5630113  16.1172753  71.3468903  25.4900113  17.7512753  63.5668903
  25.5630113  18.6112753  63.6958903  25.4520113  17.6762753  62.6988903
  25.4950113  17.8672753  63.4578903  30.1630113  20.6772753  55.8658903
  29.7130113  21.3582753  56.1728903  30.2770113  20.1732753  56.5688903
  30.1140113  20.7032753  56.0148903  18.3690113  23.1762753  65.0678903
  18.1130113  24.0072753  64.9928903  17.7050113  22.7932753  65.4848903
  18.2330113  23.2422753  65.1188903  18.2790113  32.8862753  62.9678903
  17.6870113  33.4442753  62.6548903  18.7050113  32.6172753  62.2558903
  18.2550113  32.9282753  62.8168903  24.1190113  30.7302753  60.4478903
  23.5400113  30.4552753  61.0398903  24.7430113  30.1212753  60.4728903
  24.1260113  30.6002753  60.5388903  30.2620113  33.0182753  57.9698903
  30.9890113  33.4902753  58.0718903  30.4910113  32.2242753  58.2498903
  30.4040113  32.9712753  58.0268903  28.4300113  33.4102753  59.9598903
  28.6440113  33.9372753  60.6218903  29.1970113  33.2362753  59.5808903
  28.5750113  33.4622753  60.0018903  21.3980113  17.9932753  65.5588903
  20.8770113  17.3652753  65.2508903  21.9890113  17.5562753  66.0298903
  21.4090113  17.8352753  65.5828903  24.7040113  20.1262753  74.8568903
  24.8210113  19.6722753  74.1208903  24.9920113  20.9242753  74.6538903
  24.7640113  20.1772753  74.7178903  19.8240113  31.5562753  60.8988903
  20.4800113  30.9812753  60.9138903  20.2130113  32.3052753  60.6778903
  19.9790113  31.5812753  60.8688903  35.5570113  20.6502753  62.1608903
  35.2110113  21.3282753  62.5868903  34.9210113  20.0522753  62.1768903
  35.4120113  20.6622753  62.2258903  30.8690113  33.4202753  68.2648903
  31.6130113  33.8762753  68.2548903  30.7480113  33.2062753  67.4278903
  30.9610113  33.4562753  68.1398903  20.4370113  19.7232753  73.8408903
  19.6590113  19.3332753  73.7688903  20.9280113  19.3112753  73.2498903
  20.3940113  19.6042753  73.7428903  20.6420113  30.0432753  64.3988903
  21.0650113  29.6872753  63.7248903  20.9660113  29.6212753  65.0908903
  20.7520113  29.9282753  64.4018903  23.8730113  32.8952753  63.6948903
  24.7170113  32.9992753  63.4998903  23.5760113  33.7132753  63.7628903
  23.9540113  33.0312753  63.6758903  27.0860113  17.3662753  73.0088903
  27.2640113  16.5572753  72.7338903  26.9430113  17.8072753  72.2698903
  27.0910113  17.3122753  72.8588903  27.6800113  22.2922753  61.7818903
  27.9670113  22.0602753  60.9918903  28.4120113  22.3712753  62.2508903
  27.8300113  22.2692753  61.7348903  28.4020113  22.6312753  56.9028903
  28.6830113  23.4192753  57.1518903  27.6260113  22.7962753  56.5398903
  28.3290113  22.7722753  56.8858903  22.8710113  34.1142753  69.4348903
  23.1630113  34.0472753  70.2548903  22.2450113  33.5092753  69.3898903
  22.8220113  34.0152753  69.5498903  35.2320113  18.9732753  67.5298903
  35.9890113  19.0452753  67.1018903  35.2950113  18.2002753  67.9288903
  35.3530113  18.8702753  67.5248903  17.7850113  20.2712753  71.4268903
  17.7810113  20.8582753  72.0728903  18.3790113  20.5832753  70.8698903
  17.8720113  20.4042753  71.4398903  30.1230113  30.6052753  71.9688903
  30.0890113  30.9872753  72.7528903  30.9770113  30.5632753  71.7978903
  30.2440113  30.6552753  72.0598903  27.2610113  30.8022753  56.7188903
  27.0800113  31.3472753  57.3758903  28.0270113  31.0922753  56.4178903
  27.3470113  30.9262753  56.7718903  30.7680113  18.6982753  57.7728903
  31.3080113  18.0162753  57.8488903  30.8300113  19.0962753  58.5468903
  30.8570113  18.6562753  57.8988903  18.7220113  19.8662753  60.3418903
  18.6080113  19.0022753  60.3728903  18.2470113  20.1602753  61.0118903
  18.6350113  19.7822753  60.4448903  20.8640113  32.2762753  68.5568903
  20.1660113  31.7682753  68.6828903  21.1240113  32.0712753  67.7488903
  20.7990113  32.1712753  68.4558903  28.0260113  21.0742753  59.0868903
  27.5180113  20.4122753  58.8328903  28.0780113  21.5782753  58.3768903
  27.9590113  21.0512753  58.9448903  28.5750113  33.7692753  69.4668903
  29.3430113  33.6892753  69.0608903  27.9920113  33.6482753  68.8288903
  28.6020113  33.7392753  69.3128903  28.0260113  18.0152753  58.9778903
  27.5710113  17.6132753  58.3518903  28.7990113  18.1702753  58.6028903
  28.0730113  17.9792753  58.8298903  26.6240113  20.3822753  63.4998903
  26.6980113  20.9502753  62.8418903  26.7450113  20.8742753  64.2098903
  26.6520113  20.5392753  63.5078903  22.2250113  31.1272753  71.1238903
  23.0660113  31.1902753  70.9018903  22.1880113  31.5242753  71.8998903
  22.3440113  31.1952753  71.2058903  21.2320113  16.2052753  61.8478903
  21.7680113  16.8932753  61.8378903  21.2350113  15.9312753  61.0198903
  21.3110113  16.2662753  61.7238903  24.1880113  26.6382753  65.8728903
  24.3600113  26.4282753  66.7018903  23.5330113  26.1042753  65.6568903
  24.1170113  26.5282753  65.9638903  24.9380113  26.5762753  68.4628903
  24.9910113  27.4232753  68.6648903  24.6530113  26.2062753  69.1998903
  24.9040113  26.6462753  68.6008903  31.1150113  27.2712753  67.5928903
  30.6010113  26.8592753  68.1638903  30.9890113  28.1152753  67.7738903
  31.0210113  27.3352753  67.7038903  31.6720113  16.4962753  62.2238903
  31.7210113  16.1782753  63.0348903  31.9950113  15.8522753  61.7308903
  31.7270113  16.3542753  62.2708903  17.7590113  30.9472753  74.6738903
  18.5150113  31.2962753  74.9318903  17.9360113  30.0942753  74.6168903
  17.8970113  30.8722753  74.7038903  34.1360113  20.7322753  70.5318903
  34.9080113  20.5072753  70.8688903  33.6610113  20.9492753  71.2318903
  34.1800113  20.7312753  70.6848903  21.6800113  20.0152753  63.5018903
  21.9520113  19.5852753  62.7938903  21.5040113  19.3792753  64.0728903
  21.6940113  19.8582753  63.4818903  21.5040113  27.4422753  63.0508903
  22.3550113  27.3622753  62.8778903  21.1470113  26.7602753  62.6388903
  21.5770113  27.3292753  62.9638903  20.2710113  34.1672753  64.2878903
  19.5980113  33.6692753  64.0428903  20.6740113  34.3522753  63.5368903
  20.2310113  34.1212753  64.1408903  19.8210113  21.1172753  66.5838903
  20.6640113  21.3372753  66.5408903  19.4320113  21.6902753  66.0528903
  19.8880113  21.2342753  66.4988903  36.6020113  32.2192753  71.9738903
  35.9200113  32.5292753  71.5268903  36.2330113  31.7612753  72.6188903
  36.4460113  32.1972753  72.0028903  32.2630113  24.2472753  57.3048903
  32.0430113  24.9782753  56.8828903  31.8150113  24.2982753  58.0518903
  32.1640113  24.3622753  57.3528903  23.8720113  27.4492753  61.2858903
  24.5850113  27.9442753  61.3758903  24.0940113  26.8822753  60.6598903
  24.0100113  27.4382753  61.2068903  36.4500113  19.1082753  56.7578903
  35.7880113  18.5402753  56.7808903  36.2570113  19.6202753  56.0778903
  36.3240113  19.1002753  56.6608903  18.0280113  29.0922753  64.6058903
  17.3610113  29.5802753  64.8818903  18.7080113  29.6372753  64.6348903
  18.0300113  29.2442753  64.6508903  25.6750113  22.8022753  74.7018903
  25.1910113  23.3792753  75.1438903  25.6470113  23.0972753  73.8808903
  25.5990113  22.9312753  74.6458903  36.7730113  23.4862753  69.3138903
  36.9880113  22.6862753  69.0378903  35.9230113  23.5462753  69.1248903
  36.6790113  23.3772753  69.2448903  18.0940113  25.7762753  59.7088903
  17.9090113  24.9372753  59.8608903  18.7530113  25.7402753  59.1388903
  18.1640113  25.6472753  59.6468903  34.4520113  18.6662753  59.0368903
  35.1980113  18.2592753  59.2358903  34.7150113  19.3812753  58.6118903
  34.6010113  18.7122753  59.0038903  28.3950113  31.1522753  63.6128903
  27.8720113  31.7862753  63.3198903  28.7050113  30.7882753  62.8838903
  28.3630113  31.1922753  63.4618903  18.2660113  29.9402753  59.2838903
  18.8180113  30.5092753  59.6478903  18.0340113  29.4252753  59.9488903
  18.3130113  29.9482753  59.4358903  22.4700113  28.9402753  66.3728903
  22.9370113  29.2292753  67.0508903  23.0420113  28.4622753  65.9188903
  22.6240113  28.9122753  66.4058903  30.9060113  20.9542753  64.1098903
  31.2500113  21.1062753  64.8968903  30.4530113  20.2162753  64.2228903
  30.8900113  20.8672753  64.2428903  18.0960113  28.3892753  56.9118903
  18.8520113  27.9572753  56.9698903  18.1110113  28.9212753  57.6028903
  18.2100113  28.4042753  57.0228903  19.0360113  26.6102753  64.9168903
  19.4670113  26.4812753  64.1698903  18.8310113  27.4582753  64.8908903
  19.0690113  26.7162753  64.8028903  25.3820113  20.1742753  58.5668903
  25.3800113  20.0572753  57.7018903  25.2010113  21.0222753  58.6588903
  25.3550113  20.2822753  58.4528903  34.4360113  32.6012753  70.0638903
  33.7650113  33.1152753  70.2818903  34.4990113  32.7012753  69.1998903
  34.3460113  32.6922753  69.9688903  23.1200113  30.1262753  63.1988903
  23.2460113  30.9692753  63.3858903  23.7880113  29.7272753  63.5948903
  23.2380113  30.1922753  63.2848903  21.2500113  23.6092753  73.0608903
  20.7140113  23.1032753  73.5288903  21.2700113  23.2192753  72.2808903
  21.1730113  23.4762753  73.0148903  21.7350113  23.0062753  58.2008903
  21.6070113  22.5582753  58.9388903  21.1530113  22.6642753  57.6488903
  21.6300113  22.8892753  58.2288903  21.9020113  24.8362753  64.7998903
  21.1210113  24.7772753  64.4168903  21.9740113  24.0842753  65.2368903
  21.7970113  24.7172753  64.8078903  22.3320113  24.5732753  68.2678903
  22.3570113  23.8982753  67.7168903  21.6860113  25.0692753  67.9558903
  22.2410113  24.5462753  68.1408903  32.2270113  22.2862753  66.6638903
  31.5650113  22.6142753  67.1268903  32.4140113  22.9202753  66.0948903
  32.1570113  22.4282753  66.6478903  26.4320113  33.3502753  67.6598903
  26.1550113  32.7092753  67.1368903  26.2240113  34.0762753  67.2218903
  26.3610113  33.3632753  67.5178903  28.8720113  18.1922753  70.0928903
  29.0210113  17.3672753  69.8498903  29.2510113  18.2472753  70.8768903
  28.9500113  18.0782753  70.1728903  30.4200113  20.2552753  60.1748903
  30.9100113  20.9722753  60.0978903  29.6300113  20.5162753  59.9118903
  30.3760113  20.3992753  60.1248903  20.1310113  25.9282753  73.8268903
  20.0940113  26.4292753  73.1128903  20.4620113  25.1762753  73.5318903
  20.1740113  25.8902753  73.6778903  31.7340113  28.1332753  72.0848903
  32.2180113  28.8512753  72.1828903  32.1280113  27.7062753  71.4338903
  31.8640113  28.1762753  72.0028903  26.0300113  30.9782753  73.2618903
  26.3840113  30.8002753  74.0388903  25.5940113  30.2492753  73.0628903
  26.0180113  30.8442753  73.3478903  27.0020113  21.7252753  65.8998903
  27.4820113  22.4242753  66.1078903  27.3750113  21.0782753  66.3508903
  27.1280113  21.7332753  65.9968903  29.1910113  24.8942753  58.1738903
  29.1830113  25.6162753  57.6838903  28.5520113  25.0292753  58.7508903
  29.0960113  25.0212753  58.1868903  30.2080113  31.8302753  65.9988903
  29.6050113  31.5342753  65.4418903  30.7530113  32.2822753  65.4898903
  30.1990113  31.8532753  65.8408903  30.2210113  28.6812753  65.3988903
  29.4240113  28.9052753  65.6728903  30.4790113  28.0872753  65.9838903
  30.1410113  28.6262753  65.5258903  24.1130113  33.4932753  59.8468903
  23.9660113  32.7172753  60.2178903  24.8020113  33.3462753  59.3318903
  24.1930113  33.3562753  59.8258903  23.7840113  17.2362753  57.8348903
  23.8810113  17.1292753  58.6958903  23.0760113  17.7422753  57.7698903
  23.6940113  17.2952753  57.9528903  26.4050113  33.0092753  58.2488903
  27.0270113  33.1722753  58.8388903  26.4410113  33.7002753  57.7168903
  26.5020113  33.1352753  58.2578903  33.4810113  26.6792753  70.2448903
  33.5360113  26.8042753  69.3828903  34.2340113  26.9992753  70.5468903
  33.6000113  26.7442753  70.1618903  29.6720113  32.0282753  74.5218903
  29.8360113  32.3112753  75.3308903  29.9350113  32.6892753  74.0168903
  29.7350113  32.1682753  74.5668903  34.5130113  16.9772753  73.2318903
  33.8760113  16.5772753  72.7898903  34.5390113  16.5462753  73.9898903
  34.4230113  16.8552753  73.2778903  20.9060113  25.5432753  59.0778903
  21.2300113  24.7642753  58.8558903  21.5520113  25.9112753  59.5328903
  21.0490113  25.4822753  59.1118903  29.2120113  26.4852753  69.8448903
  29.0570113  27.0952753  70.4488903  29.7460113  25.9272753  70.2508903
  29.2680113  26.4932753  69.9938903  17.9030113  17.2042753  60.0458903
  18.0320113  16.4962753  59.5538903  17.5360113  16.8862753  60.7708903
  17.8680113  17.0522753  60.0808903  27.5960113  24.8852753  60.5028903
  27.6550113  25.5352753  61.0818903  27.4070113  24.1892753  60.9938903
  27.5770113  24.8782753  60.6608903  32.8220113  29.2142753  66.3718903
  32.3430113  29.5122753  65.7058903  32.4660113  28.4382753  66.5498903
  32.6990113  29.1432753  66.2998903  22.0920113  19.4022753  57.0148903
  21.5810113  19.4552753  56.3088903  22.8760113  19.6422753  56.7188903
  22.1320113  19.4452753  56.8668903  26.8190113  26.9322753  64.9338903
  25.9720113  26.7382753  65.0148903  27.1430113  26.7672753  65.7268903
  26.7410113  26.8792753  65.0628903  23.5710113  33.6622753  55.8198903
  24.0100113  32.9652753  56.1078903  23.7780113  34.2862753  56.3928903
  23.6670113  33.6512753  55.9468903  20.6670113  26.6252753  67.2498903
  21.3890113  27.1132753  67.2128903  20.3970113  26.5952753  66.4208903
  20.7340113  26.6932753  67.1218903  23.8970113  21.7962753  63.9848903
  24.7430113  21.6062753  64.0828903  23.5270113  21.0192753  63.8468903
  23.9670113  21.6532753  63.9788903  18.7180113  23.1342753  60.6398903
  19.2070113  22.8422753  61.3008903  18.8470113  22.5412753  60.0128903
  18.8090113  23.0032753  60.6448903  33.7530113  26.1562753  67.4908903
  33.7460113  25.3802753  67.8888903  32.9120113  26.3902753  67.4838903
  33.6280113  26.0762753  67.5488903  23.2430113  24.5682753  56.1258903
  22.6330113  24.1632753  56.5998903  22.8570113  24.6862753  55.3528903
  23.0960113  24.5252753  56.0818903  20.0620113  27.6772753  71.5278903
  19.6410113  27.1592753  70.9668903  19.7100113  28.4632753  71.3848903
  19.9480113  27.7172753  71.4238903  24.6980113  23.0292753  58.8358903
  24.9700113  23.8552753  58.9028903  23.8350113  23.1042753  58.7398903
  24.6110113  23.1622753  58.8308903  32.6710113  20.1512753  73.4678903
  32.1460113  20.6102753  73.9918903  32.3100113  19.3562753  73.4618903
  32.5400113  20.1012753  73.5438903  18.1780113  18.9992753  65.3718903
  18.2220113  19.3432753  64.5708903  18.9330113  19.2362753  65.7388903
  18.2960113  19.0852753  65.3078903  31.1630113  23.7202753  73.5438903
  31.2360113  23.8242753  74.4068903  30.5290113  24.2782753  73.3228903
  31.0800113  23.8182753  73.6388903  33.4310113  24.0392753  71.9088903
  33.7500113  24.8252753  72.1118903  33.0610113  23.7692753  72.6518903
  33.4240113  24.1152753  72.0488903  32.7450113  30.4632753  57.4388903
  33.0790113  29.6572753  57.4738903  31.9900113  30.3912753  57.8688903
  32.6830113  30.3332753  57.5078903  33.2270113  22.2972753  63.0978903
  32.4820113  21.9742753  63.4158903  33.2290113  23.1232753  63.3778903
  33.1170113  22.3712753  63.1858903  36.1290113  24.5812753  74.6438903
  36.0770113  24.2402753  73.8428903  36.8660113  25.0482753  74.6218903
  36.2300113  24.6002753  74.5218903  35.6670113  28.2572753  70.8498903
  36.2950113  27.7082753  70.5938903  35.6060113  28.8222753  70.1878903
  35.7510113  28.2602753  70.7138903  30.1190113  28.3382753  56.8418903
  30.8030113  27.8242753  56.6728903  29.7020113  28.3842753  56.0768903
  30.1580113  28.2692753  56.7038903  24.8010113  29.4882753  68.1458903
  24.5030113  30.0802753  68.7128903  24.8560113  29.9302753  67.3968903
  24.7650113  29.6412753  68.1188903  22.7800113  28.4382753  71.5438903
  21.9740113  28.1482753  71.7108903  22.6910113  29.3062753  71.5498903
  22.6480113  28.5232753  71.5688903  32.1390113  18.6272753  70.5588903
  32.8830113  19.0792753  70.4958903  31.5730113  19.0972753  70.0898903
  32.1660113  18.7642753  70.4808903  27.3170113  25.9112753  67.6368903
  27.7930113  26.2852753  68.2648903  26.4940113  26.0452753  67.8958903
  27.2660113  25.9862753  67.7678903  24.0270113  21.5142753  70.3778903
  24.1880113  20.7702753  70.8048903  23.9820113  21.2652753  69.5428903
  24.0440113  21.3672753  70.3178903  26.5810113  33.3042753  62.8648903
  27.1270113  33.9832753  62.9188903  26.2310113  33.3862753  62.0698903
  26.6100113  33.4172753  62.7548903  33.4240113  16.6072753  68.2288903
  33.1440113  17.4322753  68.1848903  34.1400113  16.6602753  68.7248903
  33.4890113  16.7372753  68.2958903  25.7790113  17.3222753  70.2578903
  26.4840113  17.6422753  69.8558903  26.0200113  16.5152753  70.4848903
  25.9180113  17.2502753  70.2318903  24.7640113  31.5322753  66.2538903
  24.1400113  32.1142753  66.0718903  25.0120113  31.2462753  65.4678903
  24.7080113  31.5762753  66.1108903  29.0730113  28.1662753  73.2428903
  29.8300113  28.4522753  72.9168903  28.5260113  28.2182753  72.5648903
  29.1040113  28.2162753  73.0938903  32.9820113  30.7162753  71.7468903
  33.3280113  30.9862753  72.5008903  33.2760113  31.2982753  71.1668903
  33.0770113  30.8422753  71.7728903  34.8450113  22.8622753  57.0858903
  35.2230113  23.5392753  56.6858903  34.0030113  23.0862753  57.1168903
  34.7760113  22.9952753  57.0308903  26.3580113  26.3082753  56.1688903
  25.5530113  26.1312753  55.8838903  26.3250113  27.1592753  56.3608903
  26.2340113  26.4072753  56.1558903  22.2880113  22.3752753  66.3188903
  22.7280113  22.2722753  65.5728903  22.8330113  22.0622753  66.9238903
  22.4330113  22.3142753  66.2978903  30.3040113  21.4772753  71.9108903
  29.6560113  21.9472753  72.2588903  30.8690113  21.3882753  72.5698903
  30.2920113  21.5332753  72.0598903  29.9920113  23.0142753  68.2088903
  30.2940113  23.4342753  68.9118903  30.0280113  22.1742753  68.4408903
  30.0420113  22.9522753  68.3468903  27.4170113  33.1812753  72.1338903
  27.8950113  32.5812753  71.7178903  27.0660113  32.7382753  72.7988903
  27.4360113  33.0272753  72.1708903  32.5400113  22.4612753  60.4608903
  32.7470113  22.2602753  61.2848903  33.2960113  22.7292753  60.1188903
  32.6820113  22.4712753  60.5318903  25.8350113  17.3602753  66.3658903
  25.0090113  17.2112753  66.6028903  25.7950113  17.3952753  65.4948903
  25.7070113  17.3432753  66.2718903  33.5620113  18.5442753  61.9348903
  32.8480113  18.0732753  62.1058903  33.4000113  18.8852753  61.1488903
  33.4330113  18.5252753  61.8438903  34.0050113  26.4882753  60.3148903
  34.4810113  25.7592753  60.2668903  33.1840113  26.2022753  60.2388903
  33.9540113  26.3382753  60.2958903  27.4760113  28.4002753  71.1538903
  26.6810113  28.3362753  71.5048903  27.5470113  29.2472753  70.9588903
  27.3690113  28.5152753  71.1768903  18.4000113  17.7582753  72.4008903
  18.2600113  18.5532753  72.0698903  17.6140113  17.5152753  72.6898903
  18.2630113  17.8402753  72.3948903  23.3060113  34.6072753  66.4708903
  23.3170113  34.6662753  67.3408903  22.8810113  33.8602753  66.3208903
  23.2450113  34.5052753  66.5768903  21.4640113  20.5022753  59.6258903
  21.5900113  20.1732753  58.8278903  20.6520113  20.2532753  59.8248903
  21.3630113  20.4172753  59.5378903  30.2210113  27.6552753  62.6698903
  30.2970113  27.9962753  63.4688903  30.3900113  26.8082753  62.7908903
  30.2570113  27.5802753  62.8058903  27.7430113  26.9292753  62.2348903
  27.4450113  26.6142753  62.9918903  28.4380113  27.4022753  62.4698903
  27.8020113  26.9522753  62.3818903  27.9650113  31.0472753  70.2618903
  28.6520113  30.9332753  70.7868903  28.0990113  31.8382753  69.9178903
  28.0860113  31.1472753  70.2888903  36.1410113  23.6562753  72.0728903
  35.2860113  23.5342753  72.1988903  36.2940113  23.2612753  71.3098903
  36.0370113  23.5792753  71.9788903  30.6540113  24.3212753  70.6488903
  30.3990113  23.6022753  71.0708903  31.4750113  24.4372753  70.9188903
  30.7380113  24.2322753  70.7508903  20.0700113  34.1052753  71.9128903
  19.4160113  33.5362753  72.0108903  19.6950113  34.8782753  72.0638903
  19.9180113  34.1352753  71.9498903  28.5880113  25.5112753  73.8358903
  28.9110113  26.1972753  73.4038903  27.8840113  25.8342753  74.2378903
  28.5310113  25.6602753  73.8308903  31.6720113  33.8852753  64.7648903
  31.2210113  34.5282753  65.1438903  32.3800113  33.8062753  65.2698903
  31.7100113  33.9682753  64.8958903  28.3730113  28.9752753  67.6948903
  27.6790113  29.3772753  68.0378903  29.0500113  29.4082753  68.0338903
  28.3700113  29.0982753  67.7958903  33.7500113  31.5682753  74.2748903
  34.5260113  31.1782753  74.3578903  33.2810113  31.2322753  74.9298903
  33.7950113  31.4612753  74.3838903  21.4410113  22.5132753  70.0418903
  21.8160113  23.1322753  69.5548903  22.1150113  22.0392753  70.3268903
  21.5960113  22.5352753  70.0118903  19.2160113  20.9612753  69.3168903
  19.2930113  20.7922753  68.4638903  19.9620113  21.3672753  69.5138903
  19.3370113  20.9962753  69.2198903  34.7750113  23.6012753  59.7568903
  34.8780113  23.5432753  58.8928903  35.5160113  23.2692753  60.0748903
  34.9000113  23.5442753  59.6758903  21.7700113  18.3712753  71.7278903
  21.6890113  17.5272753  71.9338903  21.4560113  18.4152753  70.9148903
  21.7120113  18.2532753  71.6378903  28.6950113  30.5662753  60.8638903
  28.4900113  31.3992753  60.7048903  27.9200113  30.1842753  60.9858903
  28.5500113  30.6332753  60.8588903  33.8770113  23.7472753  69.1128903
  33.8750113  22.8842753  69.2368903  33.9440113  24.0712753  69.9198903
  33.8870113  23.6672753  69.2498903  18.6130113  26.1872753  69.5408903
  18.9330113  26.4062753  68.7598903  18.5130113  25.3222753  69.4858903
  18.6450113  26.0922753  69.4178903  20.0690113  22.1232753  56.1588903
  19.3970113  22.1372753  56.7148903  20.1640113  21.2752753  55.9748903
  19.9840113  22.0002753  56.2138903  29.7560113  18.5472753  72.8948903
  29.8480113  19.2592753  73.3888903  29.1190113  18.1022753  73.2918903
  29.6750113  18.5862753  73.0268903  28.7500113  18.7372753  63.7488903
  28.0500113  19.2552753  63.6928903  28.7880113  18.3572753  62.9648903
  28.6520113  18.7582753  63.6248903  24.0570113  30.8282753  57.2728903
  24.4980113  30.9082753  58.0208903  23.2520113  30.6122753  57.5308903
  24.0030113  30.8082753  57.4218903  32.3480113  19.2532753  66.5488903
  33.2030113  19.3522753  66.6938903  31.9790113  19.8062753  67.1138903
  32.4200113  19.3502753  66.6538903  23.3760113  25.4792753  70.9258903
  22.9800113  26.2532753  71.0008903  22.9700113  25.1062753  70.2498903
  23.2580113  25.5382753  70.8368903  32.6520113  24.5332753  65.0398903
  33.3180113  25.0742753  65.1998903  32.3070113  24.8442753  64.3008903
  32.6990113  24.6592753  64.9548903  21.3860113  29.8982753  57.8738903
  21.1420113  29.5912753  58.6538903  21.3530113  29.1952753  57.3578903
  21.3450113  29.7492753  57.9128903  24.2050113  28.1432753  56.6168903
  23.3870113  27.8752753  56.7568903  24.1770113  28.9952753  56.8018903
  24.0800113  28.2302753  56.6648903  23.8050113  18.4562753  68.3758903
  22.9410113  18.5402753  68.4558903  24.0250113  17.9422753  69.0448903
  23.7100113  18.3932753  68.4868903  35.8230113  17.0912753  69.7048903
  35.7710113  17.0472753  70.5748903  36.5100113  16.5882753  69.5148903
  35.9170113  17.0112753  69.8048903  27.9080113  19.2042753  66.7498903
  27.1710113  18.7502753  66.8628903  28.4790113  18.8022753  67.2728903
  27.8830113  19.0772753  66.8438903  30.6400113  30.0522753  68.5378903
  30.8460113  30.3532753  69.3298903  30.5790113  30.7742753  68.0528903
  30.6610113  30.2032753  68.5828903  30.1740113  34.2662753  72.7838903
  29.4210113  34.2482753  72.3428903  30.3420113  35.1182753  72.8678903
  30.0880113  34.3892753  72.7308903  25.4110113  23.5332753  71.9538903
  25.0890113  22.9572753  71.3838903  25.0520113  24.2882753  71.7078903
  25.3110113  23.5592753  71.8338903  26.2070113  16.7852753  56.5808903
  26.2850113  17.0322753  55.7478903  25.4640113  17.1622753  56.8388903
  26.1090113  16.8772753  56.4958903  23.8460113  33.8892753  72.2018903
  23.8870113  34.0152753  73.0648903  24.4970113  33.3292753  72.0458903
  23.9480113  33.8252753  72.3068903  33.5570113  31.9512753  66.7928903
  34.0840113  31.8682753  66.1018903  33.1660113  31.1732753  66.8468903
  33.5770113  31.8242753  66.6988903  21.0250113  18.5392753  69.0238903
  20.6820113  17.7722753  68.7898903  20.3300113  19.0632753  69.0878903
  20.8720113  18.5032753  68.9988903  30.0710113  17.3952753  66.0008903
  30.7410113  17.9392753  66.1278903  29.5680113  17.8192753  65.4278903
  30.0960113  17.5382753  65.9348903  21.4390113  32.2722753  73.5618903
  22.0340113  32.7032753  74.0338903  21.0750113  32.8962753  73.0728903
  21.4730113  32.4282753  73.5588903  29.4300113  23.2032753  63.4938903
  29.9810113  22.5962753  63.7938903  29.0050113  23.4662753  64.2088903
  29.4490113  23.1522753  63.6428903  19.6780113  21.8532753  62.9798903
  19.3100113  22.1552753  63.7108903  20.2120113  21.2242753  63.2638903
  19.7020113  21.8052753  63.1298903  19.3660113  30.2612753  70.4908903
  18.7920113  30.6772753  70.9998903  20.0990113  30.7262753  70.5858903
  19.3900113  30.3912753  70.5798903  31.4000113  25.0342753  60.0558903
  31.4680113  24.1842753  60.2368903  30.5770113  25.1202753  59.7778903
  31.2880113  24.9212753  60.0418903  21.1520113  33.5282753  59.2658903
  21.0070113  33.6842753  58.4198903  22.0180113  33.6072753  59.3438903
  21.2590113  33.5632753  59.1528903  25.3190113  25.9252753  58.9938903
  25.4190113  26.0642753  58.1388903  26.1370113  25.8652753  59.2898903
  25.4540113  25.9362753  58.9108903  34.6740113  26.4072753  73.2068903
  35.3080113  26.2372753  73.7808903  35.0910113  26.8102753  72.5548903
  34.8290113  26.4422753  73.1958903  30.5540113  30.2542753  58.7958903
  30.3030113  30.1262753  59.6218903  30.2370113  29.5592753  58.3748903
  30.4700113  30.1332753  58.8558903  35.2990113  20.9712753  73.9448903
  35.1030113  21.6152753  74.4998903  34.5770113  20.4812753  73.9368903
  35.1640113  20.9942753  74.0258903  35.1980113  21.9122753  66.9158903
  34.3650113  22.1622753  66.8438903  35.1420113  21.0722753  67.1448903
  35.0670113  21.8252753  66.9388903  24.4580113  18.9002753  72.1098903
  24.6920113  18.3242753  71.4968903  23.6160113  18.7192753  72.2508903
  24.3680113  18.7882753  72.0398903  32.0850113  26.5182753  74.5618903
  32.9560113  26.4822753  74.5258903  31.8660113  26.9382753  73.8298903
  32.1820113  26.5742753  74.4488903  21.8390113  32.3432753  65.7428903
  21.7600113  31.5332753  65.4268903  21.3950113  32.8302753  65.1708903
  21.7620113  32.2952753  65.6118903  27.4400113  28.4622753  58.2258903
  28.1570113  28.1152753  57.8698903  27.4060113  29.2622753  57.8778903
  27.5410113  28.5292753  58.1218903  19.4110113  34.5872753  69.3238903
  19.9040113  34.5312753  70.0418903  19.5990113  33.8542753  68.8888903
  19.5120113  34.4702753  69.3658903  28.8490113  17.1032753  42.4646493
  28.6040113  17.5912753  41.7846493  29.7120113  17.0302753  42.3646493
  28.9400113  17.1642753  42.3496493  28.6580113  24.0192753  47.1356493
  28.1340113  24.6152753  47.4986493  29.0550113  23.6512753  47.8196493
  28.6390113  24.0532753  47.2906493  18.5270113  28.1592753  42.5916493
  18.0860113  28.2772753  43.3346493  18.2440113  27.3842753  42.3066493
  18.4200113  28.0622753  42.6596493  18.2700113  21.9512753  39.0986493
  17.4920113  22.1132753  38.7386493  18.3090113  21.0802753  39.1206493
  18.1610113  21.8462753  39.0486493  21.4090113  27.2142753  37.7706493
  21.0170113  26.8432753  37.0846493  21.3290113  26.6162753  38.3996493
  21.3390113  27.0712753  37.7616493  31.3290113  25.0862753  43.8116493
  31.4090113  25.0902753  42.9426493  30.7450113  24.4542753  43.9606493
  31.2540113  24.9932753  43.7056493  21.0360113  28.8552753  41.6706493
  21.6440113  28.6852753  42.2736493  20.2850113  28.7152753  42.0916493
  21.0150113  28.8092753  41.8216493  25.3180113  18.1902753  41.6196493
  25.2480113  18.8672753  41.0736493  26.0590113  17.8022753  41.3706493
  25.4170113  18.2332753  41.5016493  19.9270113  31.9462753  37.7476493
  20.3940113  32.0302753  37.0156493  20.3820113  31.3682753  38.2166493
  20.0630113  31.8732753  37.7086493  18.4670113  30.8942753  48.8466493
  18.5960113  30.6142753  49.6626493  17.8570113  30.3532753  48.5376493
  18.3960113  30.7732753  48.9216493  25.0410113  28.4192753  53.9136493
  24.8050113  28.4162753  54.7536493  24.2930113  28.2712753  53.4896493
  24.8950113  28.3962753  53.9746493  19.9130113  25.4152753  43.0486493
  19.4510113  25.0232753  42.4216493  20.6130113  24.9022753  43.1406493
  19.9480113  25.2822753  42.9696493  24.4210113  21.0252753  48.3956493
  25.0990113  21.0432753  47.8466493  24.3760113  20.1892753  48.6406493
  24.5140113  20.9042753  48.3506493  25.0230113  31.6112753  51.1766493
  25.1610113  32.3712753  50.7696493  25.8140113  31.2462753  51.2036493
  25.1600113  31.6702753  51.1206493  21.9140113  23.5152753  43.0716493
  22.7310113  23.3282753  43.3146493  21.4370113  22.9012753  43.4676493
  21.9640113  23.3972753  43.1666493  26.1180113  29.4962753  45.6816493
  26.4660113  28.6972753  45.7116493  26.7830113  30.0002753  45.4266493
  26.2680113  29.4522753  45.6486493  26.1750113  28.9452753  41.8926493
  26.5060113  28.3012753  42.3786493  26.4150113  28.7342753  41.0816493
  26.2590113  28.8192753  41.8446493  28.1430113  23.0762753  53.2316493
  27.2950113  22.9772753  53.0536493  28.1720113  23.8212753  53.6856493
  28.0220113  23.1722753  53.2726493  22.5110113  18.6092753  42.3376493
  22.2150113  19.1102753  41.6876493  23.3780113  18.6872753  42.2806493
  22.5950113  18.6952753  42.2336493  32.7010113  16.0362753  52.3456493
  32.5430113  16.8052753  51.9636493  31.9290113  15.8162753  52.6896493
  32.5630113  16.1172753  52.3406493  25.4900113  17.7512753  44.5606493
  25.5630113  18.6112753  44.6896493  25.4520113  17.6762753  43.6926493
  25.4950113  17.8672753  44.4516493  30.1630113  20.6772753  36.8596493
  29.7130113  21.3582753  37.1666493  30.2770113  20.1732753  37.5626493
  30.1140113  20.7032753  37.0086493  18.3690113  23.1762753  46.0616493
  18.1130113  24.0072753  45.9866493  17.7050113  22.7932753  46.4786493
  18.2330113  23.2422753  46.1126493  18.2790113  32.8862753  43.9616493
  17.6870113  33.4442753  43.6486493  18.7050113  32.6172753  43.2496493
  18.2550113  32.9282753  43.8106493  24.1190113  30.7302753  41.4416493
  23.5400113  30.4552753  42.0336493  24.7430113  30.1212753  41.4666493
  24.1260113  30.6002753  41.5326493  21.3980113  17.9932753  46.5526493
  20.8770113  17.3652753  46.2446493  21.9890113  17.5562753  47.0236493
  21.4090113  17.8352753  46.5766493  24.7040113  20.1262753  55.8506493
  24.8210113  19.6722753  55.1146493  24.9920113  20.9242753  55.6476493
  24.7640113  20.1772753  55.7116493  19.8240113  31.5562753  41.8926493
  20.4800113  30.9812753  41.9076493  20.2130113  32.3052753  41.6716493
  19.9790113  31.5812753  41.8626493  35.5570113  20.6502753  43.1546493
  35.2110113  21.3282753  43.5806493  34.9210113  20.0522753  43.1706493
  35.4120113  20.6622753  43.2196493  20.4370113  19.7232753  54.8346493
  19.6590113  19.3332753  54.7626493  20.9280113  19.3112753  54.2436493
  20.3940113  19.6042753  54.7366493  20.6420113  30.0432753  45.3926493
  21.0650113  29.6872753  44.7186493  20.9660113  29.6212753  46.0846493
  20.7520113  29.9282753  45.3956493  23.8730113  32.8952753  44.6886493
  24.7170113  32.9992753  44.4936493  23.5760113  33.7132753  44.7566493
  23.9540113  33.0312753  44.6696493  27.0860113  17.3662753  54.0026493
  27.2640113  16.5572753  53.7276493  26.9430113  17.8072753  53.2636493
  27.0910113  17.3122753  53.8526493  27.6800113  22.2922753  42.7756493
  27.9670113  22.0602753  41.9856493  28.4120113  22.3712753  43.2446493
  27.8300113  22.2692753  42.7286493  28.4020113  22.6312753  37.8966493
  28.6830113  23.4192753  38.1456493  27.6260113  22.7962753  37.5336493
  28.3290113  22.7722753  37.8796493  22.8710113  34.1142753  50.4286493
  23.1630113  34.0472753  51.2486493  22.2450113  33.5092753  50.3836493
  22.8220113  34.0152753  50.5436493  35.2320113  18.9732753  48.5236493
  35.9890113  19.0452753  48.0956493  35.2950113  18.2002753  48.9226493
  35.3530113  18.8702753  48.5186493  17.7850113  20.2712753  52.4206493
  17.7810113  20.8582753  53.0666493  18.3790113  20.5832753  51.8636493
  17.8720113  20.4042753  52.4336493  30.1230113  30.6052753  52.9626493
  30.0890113  30.9872753  53.7466493  30.9770113  30.5632753  52.7916493
  30.2440113  30.6552753  53.0536493  30.7680113  18.6982753  38.7666493
  31.3080113  18.0162753  38.8426493  30.8300113  19.0962753  39.5406493
  30.8570113  18.6562753  38.8926493  18.7220113  19.8662753  41.3356493
  18.6080113  19.0022753  41.3666493  18.2470113  20.1602753  42.0056493
  18.6350113  19.7822753  41.4386493  20.8640113  32.2762753  49.5506493
  20.1660113  31.7682753  49.6766493  21.1240113  32.0712753  48.7426493
  20.7990113  32.1712753  49.4496493  28.0260113  21.0742753  40.0806493
  27.5180113  20.4122753  39.8266493  28.0780113  21.5782753  39.3706493
  27.9590113  21.0512753  39.9386493  28.0260113  18.0152753  39.9716493
  27.5710113  17.6132753  39.3456493  28.7990113  18.1702753  39.5966493
  28.0730113  17.9792753  39.8236493  26.6240113  20.3822753  44.4936493
  26.6980113  20.9502753  43.8356493  26.7450113  20.8742753  45.2036493
  26.6520113  20.5392753  44.5016493  31.8490113  30.2172753  42.9056493
  32.5500113  29.7352753  43.0946493  31.1890113  29.6482753  42.9506493
  31.8550113  30.0622753  42.9396493  22.2250113  31.1272753  52.1176493
  23.0660113  31.1902753  51.8956493  22.1880113  31.5242753  52.8936493
  22.3440113  31.1952753  52.1996493  21.2320113  16.2052753  42.8416493
  21.7680113  16.8932753  42.8316493  21.2350113  15.9312753  42.0136493
  21.3110113  16.2662753  42.7176493  24.1880113  26.6382753  46.8666493
  24.3600113  26.4282753  47.6956493  23.5330113  26.1042753  46.6506493
  24.1170113  26.5282753  46.9576493  30.4160113  20.5522753  50.3816493
  30.3210113  20.8712753  51.1876493  29.8230113  19.9132753  50.3436493
  30.3140113  20.5042753  50.4956493  24.9380113  26.5762753  49.4566493
  24.9910113  27.4232753  49.6586493  24.6530113  26.2062753  50.1936493
  24.9040113  26.6462753  49.5946493  31.1150113  27.2712753  48.5866493
  30.6010113  26.8592753  49.1576493  30.9890113  28.1152753  48.7676493
  31.0210113  27.3352753  48.6976493  31.6720113  16.4962753  43.2176493
  31.7210113  16.1782753  44.0286493  31.9950113  15.8522753  42.7246493
  31.7270113  16.3542753  43.2646493  17.7590113  30.9472753  55.6676493
  18.5150113  31.2962753  55.9256493  17.9360113  30.0942753  55.6106493
  17.8970113  30.8722753  55.6976493  34.1360113  20.7322753  51.5256493
  34.9080113  20.5072753  51.8626493  33.6610113  20.9492753  52.2256493
  34.1800113  20.7312753  51.6786493  21.6800113  20.0152753  44.4956493
  21.9520113  19.5852753  43.7876493  21.5040113  19.3792753  45.0666493
  21.6940113  19.8582753  44.4756493  21.5040113  27.4422753  44.0446493
  22.3550113  27.3622753  43.8716493  21.1470113  26.7602753  43.6326493
  21.5770113  27.3292753  43.9576493  20.2710113  34.1672753  45.2816493
  19.5980113  33.6692753  45.0366493  20.6740113  34.3522753  44.5306493
  20.2310113  34.1212753  45.1346493  19.8210113  21.1172753  47.5776493
  20.6640113  21.3372753  47.5346493  19.4320113  21.6902753  47.0466493
  19.8880113  21.2342753  47.4926493  32.2630113  24.2472753  38.2986493
  32.0430113  24.9782753  37.8766493  31.8150113  24.2982753  39.0456493
  32.1640113  24.3622753  38.3466493  23.8720113  27.4492753  42.2796493
  24.5850113  27.9442753  42.3696493  24.0940113  26.8822753  41.6536493
  24.0100113  27.4382753  42.2006493  36.4500113  19.1082753  37.7516493
  35.7880113  18.5402753  37.7746493  36.2570113  19.6202753  37.0716493
  36.3240113  19.1002753  37.6546493  18.0280113  29.0922753  45.5996493
  17.3610113  29.5802753  45.8756493  18.7080113  29.6372753  45.6286493
  18.0300113  29.2442753  45.6446493  25.6750113  22.8022753  55.6956493
  25.1910113  23.3792753  56.1376493  25.6470113  23.0972753  54.8746493
  25.5990113  22.9312753  55.6396493  36.7730113  23.4862753  50.3076493
  36.9880113  22.6862753  50.0316493  35.9230113  23.5462753  50.1186493
  36.6790113  23.3772753  50.2386493  18.0940113  25.7762753  40.7026493
  17.9090113  24.9372753  40.8546493  18.7530113  25.7402753  40.1326493
  18.1640113  25.6472753  40.6406493  18.2660113  29.9402753  40.2776493
  18.8180113  30.5092753  40.6416493  18.0340113  29.4252753  40.9426493
  18.3130113  29.9482753  40.4296493  22.4700113  28.9402753  47.3666493
  22.9370113  29.2292753  48.0446493  23.0420113  28.4622753  46.9126493
  22.6240113  28.9122753  47.3996493  30.9060113  20.9542753  45.1036493
  31.2500113  21.1062753  45.8906493  30.4530113  20.2162753  45.2166493
  30.8900113  20.8672753  45.2366493  18.0960113  28.3892753  37.9056493
  18.8520113  27.9572753  37.9636493  18.1110113  28.9212753  38.5966493
  18.2100113  28.4042753  38.0166493  19.0360113  26.6102753  45.9106493
  19.4670113  26.4812753  45.1636493  18.8310113  27.4582753  45.8846493
  19.0690113  26.7162753  45.7966493  23.1200113  30.1262753  44.1926493
  23.2460113  30.9692753  44.3796493  23.7880113  29.7272753  44.5886493
  23.2380113  30.1922753  44.2786493  21.2500113  23.6092753  54.0546493
  20.7140113  23.1032753  54.5226493  21.2700113  23.2192753  53.2746493
  21.1730113  23.4762753  54.0086493  21.7350113  23.0062753  39.1946493
  21.6070113  22.5582753  39.9326493  21.1530113  22.6642753  38.6426493
  21.6300113  22.8892753  39.2226493  21.9020113  24.8362753  45.7936493
  21.1210113  24.7772753  45.4106493  21.9740113  24.0842753  46.2306493
  21.7970113  24.7172753  45.8016493  22.3320113  24.5732753  49.2616493
  22.3570113  23.8982753  48.7106493  21.6860113  25.0692753  48.9496493
  22.2410113  24.5462753  49.1346493  32.2270113  22.2862753  47.6576493
  31.5650113  22.6142753  48.1206493  32.4140113  22.9202753  47.0886493
  32.1570113  22.4282753  47.6416493  26.4320113  33.3502753  48.6536493
  26.1550113  32.7092753  48.1306493  26.2240113  34.0762753  48.2156493
  26.3610113  33.3632753  48.5116493  28.8720113  18.1922753  51.0866493
  29.0210113  17.3672753  50.8436493  29.2510113  18.2472753  51.8706493
  28.9500113  18.0782753  51.1666493  30.4200113  20.2552753  41.1686493
  30.9100113  20.9722753  41.0916493  29.6300113  20.5162753  40.9056493
  30.3760113  20.3992753  41.1186493  20.1310113  25.9282753  54.8206493
  20.0940113  26.4292753  54.1066493  20.4620113  25.1762753  54.5256493
  20.1740113  25.8902753  54.6716493  31.7340113  28.1332753  53.0786493
  32.2180113  28.8512753  53.1766493  32.1280113  27.7062753  52.4276493
  31.8640113  28.1762753  52.9966493  26.0300113  30.9782753  54.2556493
  26.3840113  30.8002753  55.0326493  25.5940113  30.2492753  54.0566493
  26.0180113  30.8442753  54.3416493  27.0020113  21.7252753  46.8936493
  27.4820113  22.4242753  47.1016493  27.3750113  21.0782753  47.3446493
  27.1280113  21.7332753  46.9906493  29.1910113  24.8942753  39.1676493
  29.1830113  25.6162753  38.6776493  28.5520113  25.0292753  39.7446493
  29.0960113  25.0212753  39.1806493  34.1630113  28.7642753  43.1486493
  34.5190113  28.4142753  43.8636493  34.1550113  28.1032753  42.5786493
  34.2150113  28.6142753  43.1696493  30.2210113  28.6812753  46.3926493
  29.4240113  28.9052753  46.6666493  30.4790113  28.0872753  46.9776493
  30.1410113  28.6262753  46.5196493  24.1130113  33.4932753  40.8406493
  23.9660113  32.7172753  41.2116493  24.8020113  33.3462753  40.3256493
  24.1930113  33.3562753  40.8196493  23.7840113  17.2362753  38.8286493
  23.8810113  17.1292753  39.6896493  23.0760113  17.7422753  38.7636493
  23.6940113  17.2952753  38.9466493  33.4810113  26.6792753  51.2386493
  33.5360113  26.8042753  50.3766493  34.2340113  26.9992753  51.5406493
  33.6000113  26.7442753  51.1556493  29.6720113  32.0282753  55.5156493
  29.8360113  32.3112753  56.3246493  29.9350113  32.6892753  55.0106493
  29.7350113  32.1682753  55.5606493  34.5130113  16.9772753  54.2256493
  33.8760113  16.5772753  53.7836493  34.5390113  16.5462753  54.9836493
  34.4230113  16.8552753  54.2716493  20.9060113  25.5432753  40.0716493
  21.2300113  24.7642753  39.8496493  21.5520113  25.9112753  40.5266493
  21.0490113  25.4822753  40.1056493  29.2120113  26.4852753  50.8386493
  29.0570113  27.0952753  51.4426493  29.7460113  25.9272753  51.2446493
  29.2680113  26.4932753  50.9876493  17.9030113  17.2042753  41.0396493
  18.0320113  16.4962753  40.5476493  17.5360113  16.8862753  41.7646493
  17.8680113  17.0522753  41.0746493  27.5960113  24.8852753  41.4966493
  27.6550113  25.5352753  42.0756493  27.4070113  24.1892753  41.9876493
  27.5770113  24.8782753  41.6546493  32.8220113  29.2142753  47.3656493
  32.3430113  29.5122753  46.6996493  32.4660113  28.4382753  47.5436493
  32.6990113  29.1432753  47.2936493  22.0920113  19.4022753  38.0086493
  21.5810113  19.4552753  37.3026493  22.8760113  19.6422753  37.7126493
  22.1320113  19.4452753  37.8606493  26.8190113  26.9322753  45.9276493
  25.9720113  26.7382753  46.0086493  27.1430113  26.7672753  46.7206493
  26.7410113  26.8792753  46.0566493  23.5710113  33.6622753  36.8136493
  24.0100113  32.9652753  37.1016493  23.7780113  34.2862753  37.3866493
  23.6670113  33.6512753  36.9406493  20.6670113  26.6252753  48.2436493
  21.3890113  27.1132753  48.2066493  20.3970113  26.5952753  47.4146493
  20.7340113  26.6932753  48.1156493  23.8970113  21.7962753  44.9786493
  24.7430113  21.6062753  45.0766493  23.5270113  21.0192753  44.8406493
  23.9670113  21.6532753  44.9726493  18.7180113  23.1342753  41.6336493
  19.2070113  22.8422753  42.2946493  18.8470113  22.5412753  41.0066493
  18.8090113  23.0032753  41.6386493  33.7530113  26.1562753  48.4846493
  33.7460113  25.3802753  48.8826493  32.9120113  26.3902753  48.4776493
  33.6280113  26.0762753  48.5426493  23.2430113  24.5682753  37.1196493
  22.6330113  24.1632753  37.5936493  22.8570113  24.6862753  36.3466493
  23.0960113  24.5252753  37.0756493  20.0620113  27.6772753  52.5216493
  19.6410113  27.1592753  51.9606493  19.7100113  28.4632753  52.3786493
  19.9480113  27.7172753  52.4176493  35.0090113  26.2272753  45.9216493
  34.7230113  26.6282753  46.6416493  35.8690113  26.1652753  46.0486493
  35.0940113  26.2772753  46.0466493  24.6980113  23.0292753  39.8296493
  24.9700113  23.8552753  39.8966493  23.8350113  23.1042753  39.7336493
  24.6110113  23.1622753  39.8246493  32.6710113  20.1512753  54.4616493
  32.1460113  20.6102753  54.9856493  32.3100113  19.3562753  54.4556493
  32.5400113  20.1012753  54.5376493  18.1780113  18.9992753  46.3656493
  18.2220113  19.3432753  45.5646493  18.9330113  19.2362753  46.7326493
  18.2960113  19.0852753  46.3016493  36.1400113  31.8602753  46.4506493
  36.4300113  32.1172753  45.6696493  36.8350113  31.9562753  46.9696493
  36.2860113  31.9122753  46.4116493  31.1630113  23.7202753  54.5376493
  31.2360113  23.8242753  55.4006493  30.5290113  24.2782753  54.3166493
  31.0800113  23.8182753  54.6326493  33.4310113  24.0392753  52.9026493
  33.7500113  24.8252753  53.1056493  33.0610113  23.7692753  53.6456493
  33.4240113  24.1152753  53.0426493  33.2270113  22.2972753  44.0916493
  32.4820113  21.9742753  44.4096493  33.2290113  23.1232753  44.3716493
  33.1170113  22.3712753  44.1796493  36.1290113  24.5812753  55.6376493
  36.0770113  24.2402753  54.8366493  36.8660113  25.0482753  55.6156493
  36.2300113  24.6002753  55.5156493  35.6670113  28.2572753  51.8436493
  36.2950113  27.7082753  51.5876493  35.6060113  28.8222753  51.1816493
  35.7510113  28.2602753  51.7076493  24.8010113  29.4882753  49.1396493
  24.5030113  30.0802753  49.7066493  24.8560113  29.9302753  48.3906493
  24.7650113  29.6412753  49.1126493  22.7800113  28.4382753  52.5376493
  21.9740113  28.1482753  52.7046493  22.6910113  29.3062753  52.5436493
  22.6480113  28.5232753  52.5626493  32.1390113  18.6272753  51.5526493
  32.8830113  19.0792753  51.4896493  31.5730113  19.0972753  51.0836493
  32.1660113  18.7642753  51.4746493  27.3170113  25.9112753  48.6306493
  27.7930113  26.2852753  49.2586493  26.4940113  26.0452753  48.8896493
  27.2660113  25.9862753  48.7616493  24.0270113  21.5142753  51.3716493
  24.1880113  20.7702753  51.7986493  23.9820113  21.2652753  50.5366493
  24.0440113  21.3672753  51.3116493  33.4240113  16.6072753  49.2226493
  33.1440113  17.4322753  49.1786493  34.1400113  16.6602753  49.7186493
  33.4890113  16.7372753  49.2896493  25.7790113  17.3222753  51.2516493
  26.4840113  17.6422753  50.8496493  26.0200113  16.5152753  51.4786493
  25.9180113  17.2502753  51.2256493  24.7640113  31.5322753  47.2476493
  24.1400113  32.1142753  47.0656493  25.0120113  31.2462753  46.4616493
  24.7080113  31.5762753  47.1046493  29.0730113  28.1662753  54.2366493
  29.8300113  28.4522753  53.9106493  28.5260113  28.2182753  53.5586493
  29.1040113  28.2162753  54.0876493  32.9820113  30.7162753  52.7406493
  33.3280113  30.9862753  53.4946493  33.2760113  31.2982753  52.1606493
  33.0770113  30.8422753  52.7666493  34.8450113  22.8622753  38.0796493
  35.2230113  23.5392753  37.6796493  34.0030113  23.0862753  38.1106493
  34.7760113  22.9952753  38.0246493  26.3580113  26.3082753  37.1626493
  25.5530113  26.1312753  36.8776493  26.3250113  27.1592753  37.3546493
  26.2340113  26.4072753  37.1496493  22.2880113  22.3752753  47.3126493
  22.7280113  22.2722753  46.5666493  22.8330113  22.0622753  47.9176493
  22.4330113  22.3142753  47.2916493  30.3040113  21.4772753  52.9046493
  29.6560113  21.9472753  53.2526493  30.8690113  21.3882753  53.5636493
  30.2920113  21.5332753  53.0536493  29.9920113  23.0142753  49.2026493
  30.2940113  23.4342753  49.9056493  30.0280113  22.1742753  49.4346493
  30.0420113  22.9522753  49.3406493  27.4170113  33.1812753  53.1276493
  27.8950113  32.5812753  52.7116493  27.0660113  32.7382753  53.7926493
  27.4360113  33.0272753  53.1646493  32.5400113  22.4612753  41.4546493
  32.7470113  22.2602753  42.2786493  33.2960113  22.7292753  41.1126493
  32.6820113  22.4712753  41.5256493  25.8350113  17.3602753  47.3596493
  25.0090113  17.2112753  47.5966493  25.7950113  17.3952753  46.4886493
  25.7070113  17.3432753  47.2656493  33.5620113  18.5442753  42.9286493
  32.8480113  18.0732753  43.0996493  33.4000113  18.8852753  42.1426493
  33.4330113  18.5252753  42.8376493  34.0050113  26.4882753  41.3086493
  34.4810113  25.7592753  41.2606493  33.1840113  26.2022753  41.2326493
  33.9540113  26.3382753  41.2896493  27.4760113  28.4002753  52.1476493
  26.6810113  28.3362753  52.4986493  27.5470113  29.2472753  51.9526493
  27.3690113  28.5152753  52.1706493  18.4000113  17.7582753  53.3946493
  18.2600113  18.5532753  53.0636493  17.6140113  17.5152753  53.6836493
  18.2630113  17.8402753  53.3886493  23.3060113  34.6072753  47.4646493
  23.3170113  34.6662753  48.3346493  22.8810113  33.8602753  47.3146493
  23.2450113  34.5052753  47.5706493  21.4640113  20.5022753  40.6196493
  21.5900113  20.1732753  39.8216493  20.6520113  20.2532753  40.8186493
  21.3630113  20.4172753  40.5316493  30.2210113  27.6552753  43.6636493
  30.2970113  27.9962753  44.4626493  30.3900113  26.8082753  43.7846493
  30.2570113  27.5802753  43.7996493  27.7430113  26.9292753  43.2286493
  27.4450113  26.6142753  43.9856493  28.4380113  27.4022753  43.4636493
  27.8020113  26.9522753  43.3756493  27.9650113  31.0472753  51.2556493
  28.6520113  30.9332753  51.7806493  28.0990113  31.8382753  50.9116493
  28.0860113  31.1472753  51.2826493  36.1410113  23.6562753  53.0666493
  35.2860113  23.5342753  53.1926493  36.2940113  23.2612753  52.3036493
  36.0370113  23.5792753  52.9726493  30.6540113  24.3212753  51.6426493
  30.3990113  23.6022753  52.0646493  31.4750113  24.4372753  51.9126493
  30.7380113  24.2322753  51.7446493  20.0700113  34.1052753  52.9066493
  19.4160113  33.5362753  53.0046493  19.6950113  34.8782753  53.0576493
  19.9180113  34.1352753  52.9436493  28.5880113  25.5112753  54.8296493
  28.9110113  26.1972753  54.3976493  27.8840113  25.8342753  55.2316493
  28.5310113  25.6602753  54.8246493  28.3730113  28.9752753  48.6886493
  27.6790113  29.3772753  49.0316493  29.0500113  29.4082753  49.0276493
  28.3700113  29.0982753  48.7896493  21.4410113  22.5132753  51.0356493
  21.8160113  23.1322753  50.5486493  22.1150113  22.0392753  51.3206493
  21.5960113  22.5352753  51.0056493  19.2160113  20.9612753  50.3106493
  19.2930113  20.7922753  49.4576493  19.9620113  21.3672753  50.5076493
  19.3370113  20.9962753  50.2136493  34.7750113  23.6012753  40.7506493
  34.8780113  23.5432753  39.8866493  35.5160113  23.2692753  41.0686493
  34.9000113  23.5442753  40.6696493  21.7700113  18.3712753  52.7216493
  21.6890113  17.5272753  52.9276493  21.4560113  18.4152753  51.9086493
  21.7120113  18.2532753  52.6316493  33.8770113  23.7472753  50.1066493
  33.8750113  22.8842753  50.2306493  33.9440113  24.0712753  50.9136493
  33.8870113  23.6672753  50.2436493  18.6130113  26.1872753  50.5346493
  18.9330113  26.4062753  49.7536493  18.5130113  25.3222753  50.4796493
  18.6450113  26.0922753  50.4116493  20.0690113  22.1232753  37.1526493
  19.3970113  22.1372753  37.7086493  20.1640113  21.2752753  36.9686493
  19.9840113  22.0002753  37.2076493  29.7560113  18.5472753  53.8886493
  29.8480113  19.2592753  54.3826493  29.1190113  18.1022753  54.2856493
  29.6750113  18.5862753  54.0206493  28.7500113  18.7372753  44.7426493
  28.0500113  19.2552753  44.6866493  28.7880113  18.3572753  43.9586493
  28.6520113  18.7582753  44.6186493  24.0570113  30.8282753  38.2666493
  24.4980113  30.9082753  39.0146493  23.2520113  30.6122753  38.5246493
  24.0030113  30.8082753  38.4156493  32.3480113  19.2532753  47.5426493
  33.2030113  19.3522753  47.6876493  31.9790113  19.8062753  48.1076493
  32.4200113  19.3502753  47.6476493  23.3760113  25.4792753  51.9196493
  22.9800113  26.2532753  51.9946493  22.9700113  25.1062753  51.2436493
  23.2580113  25.5382753  51.8306493  32.6520113  24.5332753  46.0336493
  33.3180113  25.0742753  46.1936493  32.3070113  24.8442753  45.2946493
  32.6990113  24.6592753  45.9486493  21.3860113  29.8982753  38.8676493
  21.1420113  29.5912753  39.6476493  21.3530113  29.1952753  38.3516493
  21.3450113  29.7492753  38.9066493  24.2050113  28.1432753  37.6106493
  23.3870113  27.8752753  37.7506493  24.1770113  28.9952753  37.7956493
  24.0800113  28.2302753  37.6586493  23.8050113  18.4562753  49.3696493
  22.9410113  18.5402753  49.4496493  24.0250113  17.9422753  50.0386493
  23.7100113  18.3932753  49.4806493  35.8230113  17.0912753  50.6986493
  35.7710113  17.0472753  51.5686493  36.5100113  16.5882753  50.5086493
  35.9170113  17.0112753  50.7986493  27.9080113  19.2042753  47.7436493
  27.1710113  18.7502753  47.8566493  28.4790113  18.8022753  48.2666493
  27.8830113  19.0772753  47.8376493  30.6400113  30.0522753  49.5316493
  30.8460113  30.3532753  50.3236493  30.5790113  30.7742753  49.0466493
  30.6610113  30.2032753  49.5766493  25.4110113  23.5332753  52.9476493
  25.0890113  22.9572753  52.3776493  25.0520113  24.2882753  52.7016493
  25.3110113  23.5592753  52.8276493  26.2070113  16.7852753  37.5746493
  26.2850113  17.0322753  36.7416493  25.4640113  17.1622753  37.8326493
  26.1090113  16.8772753  37.4896493  35.4520113  28.6912753  48.9896493
  35.4200113  27.8292753  48.8546493  34.7590113  28.9932753  48.5556493
  35.3450113  28.6082753  48.9056493  23.8460113  33.8892753  53.1956493
  23.8870113  34.0152753  54.0586493  24.4970113  33.3292753  53.0396493
  23.9480113  33.8252753  53.3006493  21.0250113  18.5392753  50.0176493
  20.6820113  17.7722753  49.7836493  20.3300113  19.0632753  50.0816493
  20.8720113  18.5032753  49.9926493  30.0710113  17.3952753  46.9946493
  30.7410113  17.9392753  47.1216493  29.5680113  17.8192753  46.4216493
  30.0960113  17.5382753  46.9286493  21.4390113  32.2722753  54.5556493
  22.0340113  32.7032753  55.0276493  21.0750113  32.8962753  54.0666493
  21.4730113  32.4282753  54.5526493  29.4300113  23.2032753  44.4876493
  29.9810113  22.5962753  44.7876493  29.0050113  23.4662753  45.2026493
  29.4490113  23.1522753  44.6366493  19.6780113  21.8532753  43.9736493
  19.3100113  22.1552753  44.7046493  20.2120113  21.2242753  44.2576493
  19.7020113  21.8052753  44.1236493  19.3660113  30.2612753  51.4846493
  18.7920113  30.6772753  51.9936493  20.0990113  30.7262753  51.5796493
  19.3900113  30.3912753  51.5736493  31.4000113  25.0342753  41.0496493
  31.4680113  24.1842753  41.2306493  30.5770113  25.1202753  40.7716493
  31.2880113  24.9212753  41.0356493  21.1520113  33.5282753  40.2596493
  21.0070113  33.6842753  39.4136493  22.0180113  33.6072753  40.3376493
  21.2590113  33.5632753  40.1466493  25.3190113  25.9252753  39.9876493
  25.4190113  26.0642753  39.1326493  26.1370113  25.8652753  40.2836493
  25.4540113  25.9362753  39.9046493  34.6740113  26.4072753  54.2006493
  35.3080113  26.2372753  54.7746493  35.0910113  26.8102753  53.5486493
  34.8290113  26.4422753  54.1896493  35.1980113  21.9122753  47.9096493
  34.3650113  22.1622753  47.8376493  35.1420113  21.0722753  48.1386493
  35.0670113  21.8252753  47.9326493  24.4580113  18.9002753  53.1036493
  24.6920113  18.3242753  52.4906493  23.6160113  18.7192753  53.2446493
  24.3680113  18.7882753  53.0336493  32.0850113  26.5182753  55.5556493
  32.9560113  26.4822753  55.5196493  31.8660113  26.9382753  54.8236493
  32.1820113  26.5742753  55.4426493  21.8390113  32.3432753  46.7366493
  21.7600113  31.5332753  46.4206493  21.3950113  32.8302753  46.1646493
  21.7620113  32.2952753  46.6056493  19.4110113  34.5872753  50.3176493
  19.9040113  34.5312753  51.0356493  19.5990113  33.8542753  49.8826493
  19.5120113  34.4702753  50.3596493  28.8490113  17.1032753  23.4584083
  28.6040113  17.5912753  22.7784083  29.7120113  17.0302753  23.3584083
  28.9400113  17.1642753  23.3434083  28.6580113  24.0192753  28.1294083
  28.1340113  24.6152753  28.4924083  29.0550113  23.6512753  28.8134083
  28.6390113  24.0532753  28.2844083  18.5270113  28.1592753  23.5854083
  18.0860113  28.2772753  24.3284083  18.2440113  27.3842753  23.3004083
  18.4200113  28.0622753  23.6534083  34.8020113  31.4602753  21.1004083
  35.5030113  30.9412753  21.0964083  34.2150113  31.0152753  20.6314083
  34.8190113  31.3172753  21.0304083  18.2700113  21.9512753  20.0924083
  17.4920113  22.1132753  19.7324083  18.3090113  21.0802753  20.1144083
  18.1610113  21.8462753  20.0424083  21.4090113  27.2142753  18.7644083
  21.0170113  26.8432753  18.0784083  21.3290113  26.6162753  19.3934083
  21.3390113  27.0712753  18.7554083  31.3290113  25.0862753  24.8054083
  31.4090113  25.0902753  23.9364083  30.7450113  24.4542753  24.9544083
  31.2540113  24.9932753  24.6994083  21.0360113  28.8552753  22.6644083
  21.6440113  28.6852753  23.2674083  20.2850113  28.7152753  23.0854083
  21.0150113  28.8092753  22.8154083  25.3180113  18.1902753  22.6134083
  25.2480113  18.8672753  22.0674083  26.0590113  17.8022753  22.3644083
  25.4170113  18.2332753  22.4954083  19.9270113  31.9462753  18.7414083
  20.3940113  32.0302753  18.0094083  20.3820113  31.3682753  19.2104083
  20.0630113  31.8732753  18.7024083  18.4670113  30.8942753  29.8404083
  18.5960113  30.6142753  30.6564083  17.8570113  30.3532753  29.5314083
  18.3960113  30.7732753  29.9154083  25.0410113  28.4192753  34.9074083
  24.8050113  28.4162753  35.7474083  24.2930113  28.2712753  34.4834083
  24.8950113  28.3962753  34.9684083  19.9130113  25.4152753  24.0424083
  19.4510113  25.0232753  23.4154083  20.6130113  24.9022753  24.1344083
  19.9480113  25.2822753  23.9634083  24.4210113  21.0252753  29.3894083
  25.0990113  21.0432753  28.8404083  24.3760113  20.1892753  29.6344083
  24.5140113  20.9042753  29.3444083  21.9140113  23.5152753  24.0654083
  22.7310113  23.3282753  24.3084083  21.4370113  22.9012753  24.4614083
  21.9640113  23.3972753  24.1604083  26.1750113  28.9452753  22.8864083
  26.5060113  28.3012753  23.3724083  26.4150113  28.7342753  22.0754083
  26.2590113  28.8192753  22.8384083  28.1430113  23.0762753  34.2254083
  27.2950113  22.9772753  34.0474083  28.1720113  23.8212753  34.6794083
  28.0220113  23.1722753  34.2664083  22.5110113  18.6092753  23.3314083
  22.2150113  19.1102753  22.6814083  23.3780113  18.6872753  23.2744083
  22.5950113  18.6952753  23.2274083  32.7010113  16.0362753  33.3394083
  32.5430113  16.8052753  32.9574083  31.9290113  15.8162753  33.6834083
  32.5630113  16.1172753  33.3344083  25.4900113  17.7512753  25.5544083
  25.5630113  18.6112753  25.6834083  25.4520113  17.6762753  24.6864083
  25.4950113  17.8672753  25.4454083  30.1630113  20.6772753  17.8534083
  29.7130113  21.3582753  18.1604083  30.2770113  20.1732753  18.5564083
  30.1140113  20.7032753  18.0024083  18.3690113  23.1762753  27.0554083
  18.1130113  24.0072753  26.9804083  17.7050113  22.7932753  27.4724083
  18.2330113  23.2422753  27.1064083  18.2790113  32.8862753  24.9554083
  17.6870113  33.4442753  24.6424083  18.7050113  32.6172753  24.2434083
  18.2550113  32.9282753  24.8044083  24.1190113  30.7302753  22.4354083
  23.5400113  30.4552753  23.0274083  24.7430113  30.1212753  22.4604083
  24.1260113  30.6002753  22.5264083  21.3980113  17.9932753  27.5464083
  20.8770113  17.3652753  27.2384083  21.9890113  17.5562753  28.0174083
  21.4090113  17.8352753  27.5704083  24.7040113  20.1262753  36.8444083
  24.8210113  19.6722753  36.1084083  24.9920113  20.9242753  36.6414083
  24.7640113  20.1772753  36.7054083  19.8240113  31.5562753  22.8864083
  20.4800113  30.9812753  22.9014083  20.2130113  32.3052753  22.6654083
  19.9790113  31.5812753  22.8564083  35.5570113  20.6502753  24.1484083
  35.2110113  21.3282753  24.5744083  34.9210113  20.0522753  24.1644083
  35.4120113  20.6622753  24.2134083  20.4370113  19.7232753  35.8284083
  19.6590113  19.3332753  35.7564083  20.9280113  19.3112753  35.2374083
  20.3940113  19.6042753  35.7304083  20.6420113  30.0432753  26.3864083
  21.0650113  29.6872753  25.7124083  20.9660113  29.6212753  27.0784083
  20.7520113  29.9282753  26.3894083  27.0860113  17.3662753  34.9964083
  27.2640113  16.5572753  34.7214083  26.9430113  17.8072753  34.2574083
  27.0910113  17.3122753  34.8464083  27.6800113  22.2922753  23.7694083
  27.9670113  22.0602753  22.9794083  28.4120113  22.3712753  24.2384083
  27.8300113  22.2692753  23.7224083  28.4020113  22.6312753  18.8904083
  28.6830113  23.4192753  19.1394083  27.6260113  22.7962753  18.5274083
  28.3290113  22.7722753  18.8734083  32.4430113  34.6052753  20.3574083
  33.1080113  34.4572753  19.8124083  32.8030113  34.5222753  21.1474083
  32.5950113  34.5712753  20.3934083  22.8710113  34.1142753  31.4224083
  23.1630113  34.0472753  32.2424083  22.2450113  33.5092753  31.3774083
  22.8220113  34.0152753  31.5374083  35.2320113  18.9732753  29.5174083
  35.9890113  19.0452753  29.0894083  35.2950113  18.2002753  29.9164083
  35.3530113  18.8702753  29.5124083  17.7850113  20.2712753  33.4144083
  17.7810113  20.8582753  34.0604083  18.3790113  20.5832753  32.8574083
  17.8720113  20.4042753  33.4274083  27.2610113  30.8022753  18.7064083
  27.0800113  31.3472753  19.3634083  28.0270113  31.0922753  18.4054083
  27.3470113  30.9262753  18.7594083  30.7680113  18.6982753  19.7604083
  31.3080113  18.0162753  19.8364083  30.8300113  19.0962753  20.5344083
  30.8570113  18.6562753  19.8864083  18.7220113  19.8662753  22.3294083
  18.6080113  19.0022753  22.3604083  18.2470113  20.1602753  22.9994083
  18.6350113  19.7822753  22.4324083  20.8640113  32.2762753  30.5444083
  20.1660113  31.7682753  30.6704083  21.1240113  32.0712753  29.7364083
  20.7990113  32.1712753  30.4434083  28.0260113  21.0742753  21.0744083
  27.5180113  20.4122753  20.8204083  28.0780113  21.5782753  20.3644083
  27.9590113  21.0512753  20.9324083  28.5750113  33.7692753  31.4544083
  29.3430113  33.6892753  31.0484083  27.9920113  33.6482753  30.8164083
  28.6020113  33.7392753  31.3004083  28.0260113  18.0152753  20.9654083
  27.5710113  17.6132753  20.3394083  28.7990113  18.1702753  20.5904083
  28.0730113  17.9792753  20.8174083  34.8520113  34.3722753  24.3554083
  34.3970113  35.0892753  24.5564083  34.2380113  33.8012753  24.1134083
  34.6940113  34.3942753  24.3494083  26.6240113  20.3822753  25.4874083
  26.6980113  20.9502753  24.8294083  26.7450113  20.8742753  26.1974083
  26.6520113  20.5392753  25.4954083  22.2250113  31.1272753  33.1114083
  23.0660113  31.1902753  32.8894083  22.1880113  31.5242753  33.8874083
  22.3440113  31.1952753  33.1934083  21.2320113  16.2052753  23.8354083
  21.7680113  16.8932753  23.8254083  21.2350113  15.9312753  23.0074083
  21.3110113  16.2662753  23.7114083  30.4160113  20.5522753  31.3754083
  30.3210113  20.8712753  32.1814083  29.8230113  19.9132753  31.3374083
  30.3140113  20.5042753  31.4894083  31.6720113  16.4962753  24.2114083
  31.7210113  16.1782753  25.0224083  31.9950113  15.8522753  23.7184083
  31.7270113  16.3542753  24.2584083  17.7590113  30.9472753  36.6614083
  18.5150113  31.2962753  36.9194083  17.9360113  30.0942753  36.6044083
  17.8970113  30.8722753  36.6914083  34.1360113  20.7322753  32.5194083
  34.9080113  20.5072753  32.8564083  33.6610113  20.9492753  33.2194083
  34.1800113  20.7312753  32.6724083  21.6800113  20.0152753  25.4894083
  21.9520113  19.5852753  24.7814083  21.5040113  19.3792753  26.0604083
  21.6940113  19.8582753  25.4694083  34.3680113  27.7102753  19.7074083
  34.4870113  27.4232753  20.5224083  35.1750113  27.7312753  19.3774083
  34.5040113  27.6712753  19.7794083  21.5040113  27.4422753  25.0384083
  22.3550113  27.3622753  24.8654083  21.1470113  26.7602753  24.6264083
  21.5770113  27.3292753  24.9514083  20.2710113  34.1672753  26.2754083
  19.5980113  33.6692753  26.0304083  20.6740113  34.3522753  25.5244083
  20.2310113  34.1212753  26.1284083  19.8210113  21.1172753  28.5714083
  20.6640113  21.3372753  28.5284083  19.4320113  21.6902753  28.0404083
  19.8880113  21.2342753  28.4864083  36.6020113  32.2192753  33.9614083
  35.9200113  32.5292753  33.5144083  36.2330113  31.7612753  34.6064083
  36.4460113  32.1972753  33.9904083  32.2630113  24.2472753  19.2924083
  32.0430113  24.9782753  18.8704083  31.8150113  24.2982753  20.0394083
  32.1640113  24.3622753  19.3404083  23.8720113  27.4492753  23.2734083
  24.5850113  27.9442753  23.3634083  24.0940113  26.8822753  22.6474083
  24.0100113  27.4382753  23.1944083  36.4500113  19.1082753  18.7454083
  35.7880113  18.5402753  18.7684083  36.2570113  19.6202753  18.0654083
  36.3240113  19.1002753  18.6484083  18.0280113  29.0922753  26.5934083
  17.3610113  29.5802753  26.8694083  18.7080113  29.6372753  26.6224083
  18.0300113  29.2442753  26.6384083  25.6750113  22.8022753  36.6894083
  25.1910113  23.3792753  37.1314083  25.6470113  23.0972753  35.8684083
  25.5990113  22.9312753  36.6334083  18.0940113  25.7762753  21.6964083
  17.9090113  24.9372753  21.8484083  18.7530113  25.7402753  21.1264083
  18.1640113  25.6472753  21.6344083  34.4520113  18.6662753  21.0244083
  35.1980113  18.2592753  21.2234083  34.7150113  19.3812753  20.5994083
  34.6010113  18.7122753  20.9914083  30.9060113  20.9542753  26.0974083
  31.2500113  21.1062753  26.8844083  30.4530113  20.2162753  26.2104083
  30.8900113  20.8672753  26.2304083  18.0960113  28.3892753  18.8994083
  18.8520113  27.9572753  18.9574083  18.1110113  28.9212753  19.5904083
  18.2100113  28.4042753  19.0104083  19.0360113  26.6102753  26.9044083
  19.4670113  26.4812753  26.1574083  18.8310113  27.4582753  26.8784083
  19.0690113  26.7162753  26.7904083  25.3820113  20.1742753  20.5544083
  25.3800113  20.0572753  19.6894083  25.2010113  21.0222753  20.6464083
  25.3550113  20.2822753  20.4404083  23.1200113  30.1262753  25.1864083
  23.2460113  30.9692753  25.3734083  23.7880113  29.7272753  25.5824083
  23.2380113  30.1922753  25.2724083  21.2500113  23.6092753  35.0484083
  20.7140113  23.1032753  35.5164083  21.2700113  23.2192753  34.2684083
  21.1730113  23.4762753  35.0024083  21.7350113  23.0062753  20.1884083
  21.6070113  22.5582753  20.9264083  21.1530113  22.6642753  19.6364083
  21.6300113  22.8892753  20.2164083  21.9020113  24.8362753  26.7874083
  21.1210113  24.7772753  26.4044083  21.9740113  24.0842753  27.2244083
  21.7970113  24.7172753  26.7954083  22.3320113  24.5732753  30.2554083
  22.3570113  23.8982753  29.7044083  21.6860113  25.0692753  29.9434083
  22.2410113  24.5462753  30.1284083  32.2270113  22.2862753  28.6514083
  31.5650113  22.6142753  29.1144083  32.4140113  22.9202753  28.0824083
  32.1570113  22.4282753  28.6354083  28.8720113  18.1922753  32.0804083
  29.0210113  17.3672753  31.8374083  29.2510113  18.2472753  32.8644083
  28.9500113  18.0782753  32.1604083  30.4200113  20.2552753  22.1624083
  30.9100113  20.9722753  22.0854083  29.6300113  20.5162753  21.8994083
  30.3760113  20.3992753  22.1124083  26.0300113  30.9782753  35.2494083
  26.3840113  30.8002753  36.0264083  25.5940113  30.2492753  35.0504083
  26.0180113  30.8442753  35.3354083  27.0020113  21.7252753  27.8874083
  27.4820113  22.4242753  28.0954083  27.3750113  21.0782753  28.3384083
  27.1280113  21.7332753  27.9844083  29.1910113  24.8942753  20.1614083
  29.1830113  25.6162753  19.6714083  28.5520113  25.0292753  20.7384083
  29.0960113  25.0212753  20.1744083  34.1630113  28.7642753  24.1424083
  34.5190113  28.4142753  24.8574083  34.1550113  28.1032753  23.5724083
  34.2150113  28.6142753  24.1634083  23.7840113  17.2362753  19.8224083
  23.8810113  17.1292753  20.6834083  23.0760113  17.7422753  19.7574083
  23.6940113  17.2952753  19.9404083  34.5130113  16.9772753  35.2194083
  33.8760113  16.5772753  34.7774083  34.5390113  16.5462753  35.9774083
  34.4230113  16.8552753  35.2654083  20.9060113  25.5432753  21.0654083
  21.2300113  24.7642753  20.8434083  21.5520113  25.9112753  21.5204083
  21.0490113  25.4822753  21.0994083  17.9030113  17.2042753  22.0334083
  18.0320113  16.4962753  21.5414083  17.5360113  16.8862753  22.7584083
  17.8680113  17.0522753  22.0684083  27.5960113  24.8852753  22.4904083
  27.6550113  25.5352753  23.0694083  27.4070113  24.1892753  22.9814083
  27.5770113  24.8782753  22.6484083  22.0920113  19.4022753  19.0024083
  21.5810113  19.4552753  18.2964083  22.8760113  19.6422753  18.7064083
  22.1320113  19.4452753  18.8544083  23.5710113  33.6622753  17.8074083
  24.0100113  32.9652753  18.0954083  23.7780113  34.2862753  18.3804083
  23.6670113  33.6512753  17.9344083  20.6670113  26.6252753  29.2374083
  21.3890113  27.1132753  29.2004083  20.3970113  26.5952753  28.4084083
  20.7340113  26.6932753  29.1094083  23.8970113  21.7962753  25.9724083
  24.7430113  21.6062753  26.0704083  23.5270113  21.0192753  25.8344083
  23.9670113  21.6532753  25.9664083  18.7180113  23.1342753  22.6274083
  19.2070113  22.8422753  23.2884083  18.8470113  22.5412753  22.0004083
  18.8090113  23.0032753  22.6324083  23.2430113  24.5682753  18.1134083
  22.6330113  24.1632753  18.5874083  22.8570113  24.6862753  17.3404083
  23.0960113  24.5252753  18.0694083  20.0620113  27.6772753  33.5154083
  19.6410113  27.1592753  32.9544083  19.7100113  28.4632753  33.3724083
  19.9480113  27.7172753  33.4114083  24.6980113  23.0292753  20.8234083
  24.9700113  23.8552753  20.8904083  23.8350113  23.1042753  20.7274083
  24.6110113  23.1622753  20.8184083  32.6710113  20.1512753  35.4554083
  32.1460113  20.6102753  35.9794083  32.3100113  19.3562753  35.4494083
  32.5400113  20.1012753  35.5314083  18.1780113  18.9992753  27.3594083
  18.2220113  19.3432753  26.5584083  18.9330113  19.2362753  27.7264083
  18.2960113  19.0852753  27.2954083  31.1630113  23.7202753  35.5314083
  31.2360113  23.8242753  36.3944083  30.5290113  24.2782753  35.3104083
  31.0800113  23.8182753  35.6264083  33.4310113  24.0392753  33.8964083
  33.7500113  24.8252753  34.0994083  33.0610113  23.7692753  34.6394083
  33.4240113  24.1152753  34.0364083  32.7450113  30.4632753  19.4264083
  33.0790113  29.6572753  19.4614083  31.9900113  30.3912753  19.8564083
  32.6830113  30.3332753  19.4954083  33.2270113  22.2972753  25.0854083
  32.4820113  21.9742753  25.4034083  33.2290113  23.1232753  25.3654083
  33.1170113  22.3712753  25.1734083  36.1290113  24.5812753  36.6314083
  36.0770113  24.2402753  35.8304083  36.8660113  25.0482753  36.6094083
  36.2300113  24.6002753  36.5094083  30.1190113  28.3382753  18.8294083
  30.8030113  27.8242753  18.6604083  29.7020113  28.3842753  18.0644083
  30.1580113  28.2692753  18.6914083  22.7800113  28.4382753  33.5314083
  21.9740113  28.1482753  33.6984083  22.6910113  29.3062753  33.5374083
  22.6480113  28.5232753  33.5564083  32.1390113  18.6272753  32.5464083
  32.8830113  19.0792753  32.4834083  31.5730113  19.0972753  32.0774083
  32.1660113  18.7642753  32.4684083  24.0270113  21.5142753  32.3654083
  24.1880113  20.7702753  32.7924083  23.9820113  21.2652753  31.5304083
  24.0440113  21.3672753  32.3054083  33.4240113  16.6072753  30.2164083
  33.1440113  17.4322753  30.1724083  34.1400113  16.6602753  30.7124083
  33.4890113  16.7372753  30.2834083  25.7790113  17.3222753  32.2454083
  26.4840113  17.6422753  31.8434083  26.0200113  16.5152753  32.4724083
  25.9180113  17.2502753  32.2194083  34.8450113  22.8622753  19.0734083
  35.2230113  23.5392753  18.6734083  34.0030113  23.0862753  19.1044083
  34.7760113  22.9952753  19.0184083  26.3580113  26.3082753  18.1564083
  25.5530113  26.1312753  17.8714083  26.3250113  27.1592753  18.3484083
  26.2340113  26.4072753  18.1434083  22.2880113  22.3752753  28.3064083
  22.7280113  22.2722753  27.5604083  22.8330113  22.0622753  28.9114083
  22.4330113  22.3142753  28.2854083  30.3040113  21.4772753  33.8984083
  29.6560113  21.9472753  34.2464083  30.8690113  21.3882753  34.5574083
  30.2920113  21.5332753  34.0474083  29.9920113  23.0142753  30.1964083
  30.2940113  23.4342753  30.8994083  30.0280113  22.1742753  30.4284083
  30.0420113  22.9522753  30.3344083  32.5400113  22.4612753  22.4484083
  32.7470113  22.2602753  23.2724083  33.2960113  22.7292753  22.1064083
  32.6820113  22.4712753  22.5194083  25.8350113  17.3602753  28.3534083
  25.0090113  17.2112753  28.5904083  25.7950113  17.3952753  27.4824083
  25.7070113  17.3432753  28.2594083  18.4000113  17.7582753  34.3884083
  18.2600113  18.5532753  34.0574083  17.6140113  17.5152753  34.6774083
  18.2630113  17.8402753  34.3824083  23.3060113  34.6072753  28.4584083
  23.3170113  34.6662753  29.3284083  22.8810113  33.8602753  28.3084083
  23.2450113  34.5052753  28.5644083  21.4640113  20.5022753  21.6134083
  21.5900113  20.1732753  20.8154083  20.6520113  20.2532753  21.8124083
  21.3630113  20.4172753  21.5254083  36.1410113  23.6562753  34.0604083
  35.2860113  23.5342753  34.1864083  36.2940113  23.2612753  33.2974083
  36.0370113  23.5792753  33.9664083  30.6540113  24.3212753  32.6364083
  30.3990113  23.6022753  33.0584083  31.4750113  24.4372753  32.9064083
  30.7380113  24.2322753  32.7384083  20.0700113  34.1052753  33.9004083
  19.4160113  33.5362753  33.9984083  19.6950113  34.8782753  34.0514083
  19.9180113  34.1352753  33.9374083  21.4410113  22.5132753  32.0294083
  21.8160113  23.1322753  31.5424083  22.1150113  22.0392753  32.3144083
  21.5960113  22.5352753  31.9994083  19.2160113  20.9612753  31.3044083
  19.2930113  20.7922753  30.4514083  19.9620113  21.3672753  31.5014083
  19.3370113  20.9962753  31.2074083  34.7750113  23.6012753  21.7444083
  34.8780113  23.5432753  20.8804083  35.5160113  23.2692753  22.0624083
  34.9000113  23.5442753  21.6634083  21.7700113  18.3712753  33.7154083
  21.6890113  17.5272753  33.9214083  21.4560113  18.4152753  32.9024083
  21.7120113  18.2532753  33.6254083  18.6130113  26.1872753  31.5284083
  18.9330113  26.4062753  30.7474083  18.5130113  25.3222753  31.4734083
  18.6450113  26.0922753  31.4054083  20.0690113  22.1232753  18.1464083
  19.3970113  22.1372753  18.7024083  20.1640113  21.2752753  17.9624083
  19.9840113  22.0002753  18.2014083  29.7560113  18.5472753  34.8824083
  29.8480113  19.2592753  35.3764083  29.1190113  18.1022753  35.2794083
  29.6750113  18.5862753  35.0144083  28.7500113  18.7372753  25.7364083
  28.0500113  19.2552753  25.6804083  28.7880113  18.3572753  24.9524083
  28.6520113  18.7582753  25.6124083  24.0570113  30.8282753  19.2604083
  24.4980113  30.9082753  20.0084083  23.2520113  30.6122753  19.5184083
  24.0030113  30.8082753  19.4094083  32.3480113  19.2532753  28.5364083
  33.2030113  19.3522753  28.6814083  31.9790113  19.8062753  29.1014083
  32.4200113  19.3502753  28.6414083  23.3760113  25.4792753  32.9134083
  22.9800113  26.2532753  32.9884083  22.9700113  25.1062753  32.2374083
  23.2580113  25.5382753  32.8244083  32.6520113  24.5332753  27.0274083
  33.3180113  25.0742753  27.1874083  32.3070113  24.8442753  26.2884083
  32.6990113  24.6592753  26.9424083  21.3860113  29.8982753  19.8614083
  21.1420113  29.5912753  20.6414083  21.3530113  29.1952753  19.3454083
  21.3450113  29.7492753  19.9004083  24.2050113  28.1432753  18.6044083
  23.3870113  27.8752753  18.7444083  24.1770113  28.9952753  18.7894083
  24.0800113  28.2302753  18.6524083  23.8050113  18.4562753  30.3634083
  22.9410113  18.5402753  30.4434083  24.0250113  17.9422753  31.0324083
  23.7100113  18.3932753  30.4744083  35.8230113  17.0912753  31.6924083
  35.7710113  17.0472753  32.5624083  36.5100113  16.5882753  31.5024083
  35.9170113  17.0112753  31.7924083  27.9080113  19.2042753  28.7374083
  27.1710113  18.7502753  28.8504083  28.4790113  18.8022753  29.2604083
  27.8830113  19.0772753  28.8314083  25.4110113  23.5332753  33.9414083
  25.0890113  22.9572753  33.3714083  25.0520113  24.2882753  33.6954083
  25.3110113  23.5592753  33.8214083  26.2070113  16.7852753  18.5684083
  26.2850113  17.0322753  17.7354083  25.4640113  17.1622753  18.8264083
  26.1090113  16.8772753  18.4834083  23.8460113  33.8892753  34.1894083
  23.8870113  34.0152753  35.0524083  24.4970113  33.3292753  34.0334083
  23.9480113  33.8252753  34.2944083  21.0250113  18.5392753  31.0114083
  20.6820113  17.7722753  30.7774083  20.3300113  19.0632753  31.0754083
  20.8720113  18.5032753  30.9864083  30.0710113  17.3952753  27.9884083
  30.7410113  17.9392753  28.1154083  29.5680113  17.8192753  27.4154083
  30.0960113  17.5382753  27.9224083  21.4390113  32.2722753  35.5494083
  22.0340113  32.7032753  36.0214083  21.0750113  32.8962753  35.0604083
  21.4730113  32.4282753  35.5464083  29.4300113  23.2032753  25.4814083
  29.9810113  22.5962753  25.7814083  29.0050113  23.4662753  26.1964083
  29.4490113  23.1522753  25.6304083  19.6780113  21.8532753  24.9674083
  19.3100113  22.1552753  25.6984083  20.2120113  21.2242753  25.2514083
  19.7020113  21.8052753  25.1174083  19.3660113  30.2612753  32.4784083
  18.7920113  30.6772753  32.9874083  20.0990113  30.7262753  32.5734083
  19.3900113  30.3912753  32.5674083  31.4000113  25.0342753  22.0434083
  31.4680113  24.1842753  22.2244083  30.5770113  25.1202753  21.7654083
  31.2880113  24.9212753  22.0294083  21.1520113  33.5282753  21.2534083
  21.0070113  33.6842753  20.4074083  22.0180113  33.6072753  21.3314083
  21.2590113  33.5632753  21.1404083  25.3190113  25.9252753  20.9814083
  25.4190113  26.0642753  20.1264083  26.1370113  25.8652753  21.2774083
  25.4540113  25.9362753  20.8984083  34.4790113  33.9892753  18.4614083
  35.1160113  33.8552753  19.0424083  34.1380113  33.1952753  18.3444083
  34.5230113  33.8522753  18.5294083  34.6740113  26.4072753  35.1944083
  35.3080113  26.2372753  35.7684083  35.0910113  26.8102753  34.5424083
  34.8290113  26.4422753  35.1834083  30.5540113  30.2542753  20.7834083
  30.3030113  30.1262753  21.6094083  30.2370113  29.5592753  20.3624083
  30.4700113  30.1332753  20.8434083  35.2990113  20.9712753  35.9324083
  35.1030113  21.6152753  36.4874083  34.5770113  20.4812753  35.9244083
  35.1640113  20.9942753  36.0134083  35.1980113  21.9122753  28.9034083
  34.3650113  22.1622753  28.8314083  35.1420113  21.0722753  29.1324083
  35.0670113  21.8252753  28.9264083  24.4580113  18.9002753  34.0974083
  24.6920113  18.3242753  33.4844083  23.6160113  18.7192753  34.2384083
  24.3680113  18.7882753  34.0274083  21.8390113  32.3432753  27.7304083
  21.7600113  31.5332753  27.4144083  21.3950113  32.8302753  27.1584083
  21.7620113  32.2952753  27.5994083  27.4400113  28.4622753  20.2134083
  28.1570113  28.1152753  19.8574083  27.4060113  29.2622753  19.8654083
  27.5410113  28.5292753  20.1094083  19.4110113  34.5872753  31.3114083
  19.9040113  34.5312753  32.0294083  19.5990113  33.8542753  30.8764083
  19.5120113  34.4702753  31.3534083  28.8490113  17.1032753   4.4521673
  28.6040113  17.5912753   3.7721673  29.7120113  17.0302753   4.3521673
  28.9400113  17.1642753   4.3371673  28.6580113  24.0192753   9.1231673
  28.1340113  24.6152753   9.4861673  29.0550113  23.6512753   9.8071673
  28.6390113  24.0532753   9.2781673  18.5270113  28.1592753   4.5791673
  18.0860113  28.2772753   5.3221673  18.2440113  27.3842753   4.2941673
  18.4200113  28.0622753   4.6471673  34.8020113  31.4602753   2.0941673
  35.5030113  30.9412753   2.0901673  34.2150113  31.0152753   1.6251673
  34.8190113  31.3172753   2.0241673  31.3290113  25.0862753   5.7991673
  31.4090113  25.0902753   4.9301673  30.7450113  24.4542753   5.9481673
  31.2540113  24.9932753   5.6931673  21.0360113  28.8552753   3.6581673
  21.6440113  28.6852753   4.2611673  20.2850113  28.7152753   4.0791673
  21.0150113  28.8092753   3.8091673  25.3180113  18.1902753   3.6071673
  25.2480113  18.8672753   3.0611673  26.0590113  17.8022753   3.3581673
  25.4170113  18.2332753   3.4891673  18.4670113  30.8942753  10.8341673
  18.5960113  30.6142753  11.6501673  17.8570113  30.3532753  10.5251673
  18.3960113  30.7732753  10.9091673  25.0410113  28.4192753  15.9011673
  24.8050113  28.4162753  16.7411673  24.2930113  28.2712753  15.4771673
  24.8950113  28.3962753  15.9621673  19.9130113  25.4152753   5.0361673
  19.4510113  25.0232753   4.4091673  20.6130113  24.9022753   5.1281673
  19.9480113  25.2822753   4.9571673  24.4210113  21.0252753  10.3831673
  25.0990113  21.0432753   9.8341673  24.3760113  20.1892753  10.6281673
  24.5140113  20.9042753  10.3381673  25.0230113  31.6112753  13.1641673
  25.1610113  32.3712753  12.7571673  25.8140113  31.2462753  13.1911673
  25.1600113  31.6702753  13.1081673  21.9140113  23.5152753   5.0591673
  22.7310113  23.3282753   5.3021673  21.4370113  22.9012753   5.4551673
  21.9640113  23.3972753   5.1541673  26.1180113  29.4962753   7.6691673
  26.4660113  28.6972753   7.6991673  26.7830113  30.0002753   7.4141673
  26.2680113  29.4522753   7.6361673  26.1750113  28.9452753   3.8801673
  26.5060113  28.3012753   4.3661673  26.4150113  28.7342753   3.0691673
  26.2590113  28.8192753   3.8321673  28.1430113  23.0762753  15.2191673
  27.2950113  22.9772753  15.0411673  28.1720113  23.8212753  15.6731673
  28.0220113  23.1722753  15.2601673  22.5110113  18.6092753   4.3251673
  22.2150113  19.1102753   3.6751673  23.3780113  18.6872753   4.2681673
  22.5950113  18.6952753   4.2211673  32.7010113  16.0362753  14.3331673
  32.5430113  16.8052753  13.9511673  31.9290113  15.8162753  14.6771673
  32.5630113  16.1172753  14.3281673  25.4900113  17.7512753   6.5481673
  25.5630113  18.6112753   6.6771673  25.4520113  17.6762753   5.6801673
  25.4950113  17.8672753   6.4391673  18.3690113  23.1762753   8.0491673
  18.1130113  24.0072753   7.9741673  17.7050113  22.7932753   8.4661673
  18.2330113  23.2422753   8.1001673  18.2790113  32.8862753   5.9491673
  17.6870113  33.4442753   5.6361673  18.7050113  32.6172753   5.2371673
  18.2550113  32.9282753   5.7981673  24.1190113  30.7302753   3.4291673
  23.5400113  30.4552753   4.0211673  24.7430113  30.1212753   3.4541673
  24.1260113  30.6002753   3.5201673  28.4300113  33.4102753   2.9411673
  28.6440113  33.9372753   3.6031673  29.1970113  33.2362753   2.5621673
  28.5750113  33.4622753   2.9831673  21.3980113  17.9932753   8.5401673
  20.8770113  17.3652753   8.2321673  21.9890113  17.5562753   9.0111673
  21.4090113  17.8352753   8.5641673  24.7040113  20.1262753  17.8381673
  24.8210113  19.6722753  17.1021673  24.9920113  20.9242753  17.6351673
  24.7640113  20.1772753  17.6991673  19.8240113  31.5562753   3.8801673
  20.4800113  30.9812753   3.8951673  20.2130113  32.3052753   3.6591673
  19.9790113  31.5812753   3.8501673  35.5570113  20.6502753   5.1421673
  35.2110113  21.3282753   5.5681673  34.9210113  20.0522753   5.1581673
  35.4120113  20.6622753   5.2071673  30.8690113  33.4202753  11.2461673
  31.6130113  33.8762753  11.2361673  30.7480113  33.2062753  10.4091673
  30.9610113  33.4562753  11.1211673  20.4370113  19.7232753  16.8221673
  19.6590113  19.3332753  16.7501673  20.9280113  19.3112753  16.2311673
  20.3940113  19.6042753  16.7241673  20.6420113  30.0432753   7.3801673
  21.0650113  29.6872753   6.7061673  20.9660113  29.6212753   8.0721673
  20.7520113  29.9282753   7.3831673  23.8730113  32.8952753   6.6761673
  24.7170113  32.9992753   6.4811673  23.5760113  33.7132753   6.7441673
  23.9540113  33.0312753   6.6571673  27.0860113  17.3662753  15.9901673
  27.2640113  16.5572753  15.7151673  26.9430113  17.8072753  15.2511673
  27.0910113  17.3122753  15.8401673  27.6800113  22.2922753   4.7631673
  27.9670113  22.0602753   3.9731673  28.4120113  22.3712753   5.2321673
  27.8300113  22.2692753   4.7161673  22.8710113  34.1142753  12.4161673
  23.1630113  34.0472753  13.2361673  22.2450113  33.5092753  12.3711673
  22.8220113  34.0152753  12.5311673  35.2320113  18.9732753  10.5111673
  35.9890113  19.0452753  10.0831673  35.2950113  18.2002753  10.9101673
  35.3530113  18.8702753  10.5061673  17.7850113  20.2712753  14.4081673
  17.7810113  20.8582753  15.0541673  18.3790113  20.5832753  13.8511673
  17.8720113  20.4042753  14.4211673  30.1230113  30.6052753  14.9501673
  30.0890113  30.9872753  15.7341673  30.9770113  30.5632753  14.7791673
  30.2440113  30.6552753  15.0411673  18.7220113  19.8662753   3.3231673
  18.6080113  19.0022753   3.3541673  18.2470113  20.1602753   3.9931673
  18.6350113  19.7822753   3.4261673  20.8640113  32.2762753  11.5381673
  20.1660113  31.7682753  11.6641673  21.1240113  32.0712753  10.7301673
  20.7990113  32.1712753  11.4371673  28.0260113  21.0742753   2.0681673
  27.5180113  20.4122753   1.8141673  28.0780113  21.5782753   1.3581673
  27.9590113  21.0512753   1.9261673  28.5750113  33.7692753  12.4481673
  29.3430113  33.6892753  12.0421673  27.9920113  33.6482753  11.8101673
  28.6020113  33.7392753  12.2941673  28.0260113  18.0152753   1.9591673
  27.5710113  17.6132753   1.3331673  28.7990113  18.1702753   1.5841673
  28.0730113  17.9792753   1.8111673  34.8520113  34.3722753   5.3491673
  34.3970113  35.0892753   5.5501673  34.2380113  33.8012753   5.1071673
  34.6940113  34.3942753   5.3431673  26.6240113  20.3822753   6.4811673
  26.6980113  20.9502753   5.8231673  26.7450113  20.8742753   7.1911673
  26.6520113  20.5392753   6.4891673  31.8490113  30.2172753   4.8931673
  32.5500113  29.7352753   5.0821673  31.1890113  29.6482753   4.9381673
  31.8550113  30.0622753   4.9271673  22.2250113  31.1272753  14.1051673
  23.0660113  31.1902753  13.8831673  22.1880113  31.5242753  14.8811673
  22.3440113  31.1952753  14.1871673  21.2320113  16.2052753   4.8291673
  21.7680113  16.8932753   4.8191673  21.2350113  15.9312753   4.0011673
  21.3110113  16.2662753   4.7051673  24.1880113  26.6382753   8.8541673
  24.3600113  26.4282753   9.6831673  23.5330113  26.1042753   8.6381673
  24.1170113  26.5282753   8.9451673  30.4160113  20.5522753  12.3691673
  30.3210113  20.8712753  13.1751673  29.8230113  19.9132753  12.3311673
  30.3140113  20.5042753  12.4831673  24.9380113  26.5762753  11.4441673
  24.9910113  27.4232753  11.6461673  24.6530113  26.2062753  12.1811673
  24.9040113  26.6462753  11.5821673  31.1150113  27.2712753  10.5741673
  30.6010113  26.8592753  11.1451673  30.9890113  28.1152753  10.7551673
  31.0210113  27.3352753  10.6851673  31.6720113  16.4962753   5.2051673
  31.7210113  16.1782753   6.0161673  31.9950113  15.8522753   4.7121673
  31.7270113  16.3542753   5.2521673  17.7590113  30.9472753  17.6551673
  18.5150113  31.2962753  17.9131673  17.9360113  30.0942753  17.5981673
  17.8970113  30.8722753  17.6851673  34.1360113  20.7322753  13.5131673
  34.9080113  20.5072753  13.8501673  33.6610113  20.9492753  14.2131673
  34.1800113  20.7312753  13.6661673  21.6800113  20.0152753   6.4831673
  21.9520113  19.5852753   5.7751673  21.5040113  19.3792753   7.0541673
  21.6940113  19.8582753   6.4631673  21.5040113  27.4422753   6.0321673
  22.3550113  27.3622753   5.8591673  21.1470113  26.7602753   5.6201673
  21.5770113  27.3292753   5.9451673  20.2710113  34.1672753   7.2691673
  19.5980113  33.6692753   7.0241673  20.6740113  34.3522753   6.5181673
  20.2310113  34.1212753   7.1221673  19.8210113  21.1172753   9.5651673
  20.6640113  21.3372753   9.5221673  19.4320113  21.6902753   9.0341673
  19.8880113  21.2342753   9.4801673  36.6020113  32.2192753  14.9551673
  35.9200113  32.5292753  14.5081673  36.2330113  31.7612753  15.6001673
  36.4460113  32.1972753  14.9841673  23.8720113  27.4492753   4.2671673
  24.5850113  27.9442753   4.3571673  24.0940113  26.8822753   3.6411673
  24.0100113  27.4382753   4.1881673  18.0280113  29.0922753   7.5871673
  17.3610113  29.5802753   7.8631673  18.7080113  29.6372753   7.6161673
  18.0300113  29.2442753   7.6321673  25.6750113  22.8022753  17.6831673
  25.1910113  23.3792753  18.1251673  25.6470113  23.0972753  16.8621673
  25.5990113  22.9312753  17.6271673  36.7730113  23.4862753  12.2951673
  36.9880113  22.6862753  12.0191673  35.9230113  23.5462753  12.1061673
  36.6790113  23.3772753  12.2261673  18.0940113  25.7762753   2.6901673
  17.9090113  24.9372753   2.8421673  18.7530113  25.7402753   2.1201673
  18.1640113  25.6472753   2.6281673  34.4520113  18.6662753   2.0181673
  35.1980113  18.2592753   2.2171673  34.7150113  19.3812753   1.5931673
  34.6010113  18.7122753   1.9851673  28.3950113  31.1522753   6.5941673
  27.8720113  31.7862753   6.3011673  28.7050113  30.7882753   5.8651673
  28.3630113  31.1922753   6.4431673  18.2660113  29.9402753   2.2651673
  18.8180113  30.5092753   2.6291673  18.0340113  29.4252753   2.9301673
  18.3130113  29.9482753   2.4171673  22.4700113  28.9402753   9.3541673
  22.9370113  29.2292753  10.0321673  23.0420113  28.4622753   8.9001673
  22.6240113  28.9122753   9.3871673  30.9060113  20.9542753   7.0911673
  31.2500113  21.1062753   7.8781673  30.4530113  20.2162753   7.2041673
  30.8900113  20.8672753   7.2241673  19.0360113  26.6102753   7.8981673
  19.4670113  26.4812753   7.1511673  18.8310113  27.4582753   7.8721673
  19.0690113  26.7162753   7.7841673  34.4360113  32.6012753  13.0451673
  33.7650113  33.1152753  13.2631673  34.4990113  32.7012753  12.1811673
  34.3460113  32.6922753  12.9501673  23.1200113  30.1262753   6.1801673
  23.2460113  30.9692753   6.3671673  23.7880113  29.7272753   6.5761673
  23.2380113  30.1922753   6.2661673  21.2500113  23.6092753  16.0421673
  20.7140113  23.1032753  16.5101673  21.2700113  23.2192753  15.2621673
  21.1730113  23.4762753  15.9961673  21.9020113  24.8362753   7.7811673
  21.1210113  24.7772753   7.3981673  21.9740113  24.0842753   8.2181673
  21.7970113  24.7172753   7.7891673  22.3320113  24.5732753  11.2491673
  22.3570113  23.8982753  10.6981673  21.6860113  25.0692753  10.9371673
  22.2410113  24.5462753  11.1221673  32.2270113  22.2862753   9.6451673
  31.5650113  22.6142753  10.1081673  32.4140113  22.9202753   9.0761673
  32.1570113  22.4282753   9.6291673  26.4320113  33.3502753  10.6411673
  26.1550113  32.7092753  10.1181673  26.2240113  34.0762753  10.2031673
  26.3610113  33.3632753  10.4991673  28.8720113  18.1922753  13.0741673
  29.0210113  17.3672753  12.8311673  29.2510113  18.2472753  13.8581673
  28.9500113  18.0782753  13.1541673  30.4200113  20.2552753   3.1561673
  30.9100113  20.9722753   3.0791673  29.6300113  20.5162753   2.8931673
  30.3760113  20.3992753   3.1061673  20.1310113  25.9282753  16.8081673
  20.0940113  26.4292753  16.0941673  20.4620113  25.1762753  16.5131673
  20.1740113  25.8902753  16.6591673  31.7340113  28.1332753  15.0661673
  32.2180113  28.8512753  15.1641673  32.1280113  27.7062753  14.4151673
  31.8640113  28.1762753  14.9841673  26.0300113  30.9782753  16.2431673
  26.3840113  30.8002753  17.0201673  25.5940113  30.2492753  16.0441673
  26.0180113  30.8442753  16.3291673  27.0020113  21.7252753   8.8811673
  27.4820113  22.4242753   9.0891673  27.3750113  21.0782753   9.3321673
  27.1280113  21.7332753   8.9781673  34.1630113  28.7642753   5.1361673
  34.5190113  28.4142753   5.8511673  34.1550113  28.1032753   4.5661673
  34.2150113  28.6142753   5.1571673  30.2080113  31.8302753   8.9801673
  29.6050113  31.5342753   8.4231673  30.7530113  32.2822753   8.4711673
  30.1990113  31.8532753   8.8221673  30.2210113  28.6812753   8.3801673
  29.4240113  28.9052753   8.6541673  30.4790113  28.0872753   8.9651673
  30.1410113  28.6262753   8.5071673  24.1130113  33.4932753   2.8281673
  23.9660113  32.7172753   3.1991673  24.8020113  33.3462753   2.3131673
  24.1930113  33.3562753   2.8071673  33.4810113  26.6792753  13.2261673
  33.5360113  26.8042753  12.3641673  34.2340113  26.9992753  13.5281673
  33.6000113  26.7442753  13.1431673  29.6720113  32.0282753  17.5031673
  29.8360113  32.3112753  18.3121673  29.9350113  32.6892753  16.9981673
  29.7350113  32.1682753  17.5481673  34.5130113  16.9772753  16.2131673
  33.8760113  16.5772753  15.7711673  34.5390113  16.5462753  16.9711673
  34.4230113  16.8552753  16.2591673  20.9060113  25.5432753   2.0591673
  21.2300113  24.7642753   1.8371673  21.5520113  25.9112753   2.5141673
  21.0490113  25.4822753   2.0931673  29.2120113  26.4852753  12.8261673
  29.0570113  27.0952753  13.4301673  29.7460113  25.9272753  13.2321673
  29.2680113  26.4932753  12.9751673  17.9030113  17.2042753   3.0271673
  18.0320113  16.4962753   2.5351673  17.5360113  16.8862753   3.7521673
  17.8680113  17.0522753   3.0621673  27.5960113  24.8852753   3.4841673
  27.6550113  25.5352753   4.0631673  27.4070113  24.1892753   3.9751673
  27.5770113  24.8782753   3.6421673  32.8220113  29.2142753   9.3531673
  32.3430113  29.5122753   8.6871673  32.4660113  28.4382753   9.5311673
  32.6990113  29.1432753   9.2811673  26.8190113  26.9322753   7.9151673
  25.9720113  26.7382753   7.9961673  27.1430113  26.7672753   8.7081673
  26.7410113  26.8792753   8.0441673  20.6670113  26.6252753  10.2311673
  21.3890113  27.1132753  10.1941673  20.3970113  26.5952753   9.4021673
  20.7340113  26.6932753  10.1031673  23.8970113  21.7962753   6.9661673
  24.7430113  21.6062753   7.0641673  23.5270113  21.0192753   6.8281673
  23.9670113  21.6532753   6.9601673  18.7180113  23.1342753   3.6211673
  19.2070113  22.8422753   4.2821673  18.8470113  22.5412753   2.9941673
  18.8090113  23.0032753   3.6261673  33.7530113  26.1562753  10.4721673
  33.7460113  25.3802753  10.8701673  32.9120113  26.3902753  10.4651673
  33.6280113  26.0762753  10.5301673  20.0620113  27.6772753  14.5091673
  19.6410113  27.1592753  13.9481673  19.7100113  28.4632753  14.3661673
  19.9480113  27.7172753  14.4051673  35.0090113  26.2272753   7.9091673
  34.7230113  26.6282753   8.6291673  35.8690113  26.1652753   8.0361673
  35.0940113  26.2772753   8.0341673  24.6980113  23.0292753   1.8171673
  24.9700113  23.8552753   1.8841673  23.8350113  23.1042753   1.7211673
  24.6110113  23.1622753   1.8121673  32.6710113  20.1512753  16.4491673
  32.1460113  20.6102753  16.9731673  32.3100113  19.3562753  16.4431673
  32.5400113  20.1012753  16.5251673  18.1780113  18.9992753   8.3531673
  18.2220113  19.3432753   7.5521673  18.9330113  19.2362753   8.7201673
  18.2960113  19.0852753   8.2891673  36.1400113  31.8602753   8.4381673
  36.4300113  32.1172753   7.6571673  36.8350113  31.9562753   8.9571673
  36.2860113  31.9122753   8.3991673  31.1630113  23.7202753  16.5251673
  31.2360113  23.8242753  17.3881673  30.5290113  24.2782753  16.3041673
  31.0800113  23.8182753  16.6201673  33.4310113  24.0392753  14.8901673
  33.7500113  24.8252753  15.0931673  33.0610113  23.7692753  15.6331673
  33.4240113  24.1152753  15.0301673  33.2270113  22.2972753   6.0791673
  32.4820113  21.9742753   6.3971673  33.2290113  23.1232753   6.3591673
  33.1170113  22.3712753   6.1671673  36.1290113  24.5812753  17.6251673
  36.0770113  24.2402753  16.8241673  36.8660113  25.0482753  17.6031673
  36.2300113  24.6002753  17.5031673  35.6670113  28.2572753  13.8311673
  36.2950113  27.7082753  13.5751673  35.6060113  28.8222753  13.1691673
  35.7510113  28.2602753  13.6951673  24.8010113  29.4882753  11.1271673
  24.5030113  30.0802753  11.6941673  24.8560113  29.9302753  10.3781673
  24.7650113  29.6412753  11.1001673  22.7800113  28.4382753  14.5251673
  21.9740113  28.1482753  14.6921673  22.6910113  29.3062753  14.5311673
  22.6480113  28.5232753  14.5501673  32.1390113  18.6272753  13.5401673
  32.8830113  19.0792753  13.4771673  31.5730113  19.0972753  13.0711673
  32.1660113  18.7642753  13.4621673  27.3170113  25.9112753  10.6181673
  27.7930113  26.2852753  11.2461673  26.4940113  26.0452753  10.8771673
  27.2660113  25.9862753  10.7491673  24.0270113  21.5142753  13.3591673
  24.1880113  20.7702753  13.7861673  23.9820113  21.2652753  12.5241673
  24.0440113  21.3672753  13.2991673  26.5810113  33.3042753   5.8461673
  27.1270113  33.9832753   5.9001673  26.2310113  33.3862753   5.0511673
  26.6100113  33.4172753   5.7361673  33.4240113  16.6072753  11.2101673
  33.1440113  17.4322753  11.1661673  34.1400113  16.6602753  11.7061673
  33.4890113  16.7372753  11.2771673  25.7790113  17.3222753  13.2391673
  26.4840113  17.6422753  12.8371673  26.0200113  16.5152753  13.4661673
  25.9180113  17.2502753  13.2131673  24.7640113  31.5322753   9.2351673
  24.1400113  32.1142753   9.0531673  25.0120113  31.2462753   8.4491673
  24.7080113  31.5762753   9.0921673  29.0730113  28.1662753  16.2241673
  29.8300113  28.4522753  15.8981673  28.5260113  28.2182753  15.5461673
  29.1040113  28.2162753  16.0751673  32.9820113  30.7162753  14.7281673
  33.3280113  30.9862753  15.4821673  33.2760113  31.2982753  14.1481673
  33.0770113  30.8422753  14.7541673  22.2880113  22.3752753   9.3001673
  22.7280113  22.2722753   8.5541673  22.8330113  22.0622753   9.9051673
  22.4330113  22.3142753   9.2791673  30.3040113  21.4772753  14.8921673
  29.6560113  21.9472753  15.2401673  30.8690113  21.3882753  15.5511673
  30.2920113  21.5332753  15.0411673  29.9920113  23.0142753  11.1901673
  30.2940113  23.4342753  11.8931673  30.0280113  22.1742753  11.4221673
  30.0420113  22.9522753  11.3281673  27.4170113  33.1812753  15.1151673
  27.8950113  32.5812753  14.6991673  27.0660113  32.7382753  15.7801673
  27.4360113  33.0272753  15.1521673  32.5400113  22.4612753   3.4421673
  32.7470113  22.2602753   4.2661673  33.2960113  22.7292753   3.1001673
  32.6820113  22.4712753   3.5131673  25.8350113  17.3602753   9.3471673
  25.0090113  17.2112753   9.5841673  25.7950113  17.3952753   8.4761673
  25.7070113  17.3432753   9.2531673  33.5620113  18.5442753   4.9161673
  32.8480113  18.0732753   5.0871673  33.4000113  18.8852753   4.1301673
  33.4330113  18.5252753   4.8251673  34.0050113  26.4882753   3.2961673
  34.4810113  25.7592753   3.2481673  33.1840113  26.2022753   3.2201673
  33.9540113  26.3382753   3.2771673  27.4760113  28.4002753  14.1351673
  26.6810113  28.3362753  14.4861673  27.5470113  29.2472753  13.9401673
  27.3690113  28.5152753  14.1581673  18.4000113  17.7582753  15.3821673
  18.2600113  18.5532753  15.0511673  17.6140113  17.5152753  15.6711673
  18.2630113  17.8402753  15.3761673  23.3060113  34.6072753   9.4521673
  23.3170113  34.6662753  10.3221673  22.8810113  33.8602753   9.3021673
  23.2450113  34.5052753   9.5581673  21.4640113  20.5022753   2.6071673
  21.5900113  20.1732753   1.8091673  20.6520113  20.2532753   2.8061673
  21.3630113  20.4172753   2.5191673  30.2210113  27.6552753   5.6511673
  30.2970113  27.9962753   6.4501673  30.3900113  26.8082753   5.7721673
  30.2570113  27.5802753   5.7871673  27.7430113  26.9292753   5.2161673
  27.4450113  26.6142753   5.9731673  28.4380113  27.4022753   5.4511673
  27.8020113  26.9522753   5.3631673  27.9650113  31.0472753  13.2431673
  28.6520113  30.9332753  13.7681673  28.0990113  31.8382753  12.8991673
  28.0860113  31.1472753  13.2701673  36.1410113  23.6562753  15.0541673
  35.2860113  23.5342753  15.1801673  36.2940113  23.2612753  14.2911673
  36.0370113  23.5792753  14.9601673  30.6540113  24.3212753  13.6301673
  30.3990113  23.6022753  14.0521673  31.4750113  24.4372753  13.9001673
  30.7380113  24.2322753  13.7321673  28.5880113  25.5112753  16.8171673
  28.9110113  26.1972753  16.3851673  27.8840113  25.8342753  17.2191673
  28.5310113  25.6602753  16.8121673  31.6720113  33.8852753   7.7461673
  31.2210113  34.5282753   8.1251673  32.3800113  33.8062753   8.2511673
  31.7100113  33.9682753   7.8771673  28.3730113  28.9752753  10.6761673
  27.6790113  29.3772753  11.0191673  29.0500113  29.4082753  11.0151673
  28.3700113  29.0982753  10.7771673  33.7500113  31.5682753  17.2561673
  34.5260113  31.1782753  17.3391673  33.2810113  31.2322753  17.9111673
  33.7950113  31.4612753  17.3651673  21.4410113  22.5132753  13.0231673
  21.8160113  23.1322753  12.5361673  22.1150113  22.0392753  13.3081673
  21.5960113  22.5352753  12.9931673  19.2160113  20.9612753  12.2981673
  19.2930113  20.7922753  11.4451673  19.9620113  21.3672753  12.4951673
  19.3370113  20.9962753  12.2011673  34.7750113  23.6012753   2.7381673
  34.8780113  23.5432753   1.8741673  35.5160113  23.2692753   3.0561673
  34.9000113  23.5442753   2.6571673  21.7700113  18.3712753  14.7091673
  21.6890113  17.5272753  14.9151673  21.4560113  18.4152753  13.8961673
  21.7120113  18.2532753  14.6191673  28.6950113  30.5662753   3.8451673
  28.4900113  31.3992753   3.6861673  27.9200113  30.1842753   3.9671673
  28.5500113  30.6332753   3.8401673  33.8770113  23.7472753  12.0941673
  33.8750113  22.8842753  12.2181673  33.9440113  24.0712753  12.9011673
  33.8870113  23.6672753  12.2311673  18.6130113  26.1872753  12.5221673
  18.9330113  26.4062753  11.7411673  18.5130113  25.3222753  12.4671673
  18.6450113  26.0922753  12.3991673  29.7560113  18.5472753  15.8761673
  29.8480113  19.2592753  16.3701673  29.1190113  18.1022753  16.2731673
  29.6750113  18.5862753  16.0081673  28.7500113  18.7372753   6.7301673
  28.0500113  19.2552753   6.6741673  28.7880113  18.3572753   5.9461673
  28.6520113  18.7582753   6.6061673  32.3480113  19.2532753   9.5301673
  33.2030113  19.3522753   9.6751673  31.9790113  19.8062753  10.0951673
  32.4200113  19.3502753   9.6351673  23.3760113  25.4792753  13.9071673
  22.9800113  26.2532753  13.9821673  22.9700113  25.1062753  13.2311673
  23.2580113  25.5382753  13.8181673  32.6520113  24.5332753   8.0211673
  33.3180113  25.0742753   8.1811673  32.3070113  24.8442753   7.2821673
  32.6990113  24.6592753   7.9361673  32.9650113  32.5992753   3.8281673
  32.7910113  31.9452753   4.3781673  33.6780113  32.3282753   3.4051673
  33.0450113  32.4622753   3.8471673  23.8050113  18.4562753  11.3571673
  22.9410113  18.5402753  11.4371673  24.0250113  17.9422753  12.0261673
  23.7100113  18.3932753  11.4681673  35.8230113  17.0912753  12.6861673
  35.7710113  17.0472753  13.5561673  36.5100113  16.5882753  12.4961673
  35.9170113  17.0112753  12.7861673  27.9080113  19.2042753   9.7311673
  27.1710113  18.7502753   9.8441673  28.4790113  18.8022753  10.2541673
  27.8830113  19.0772753   9.8251673  30.6400113  30.0522753  11.5191673
  30.8460113  30.3532753  12.3111673  30.5790113  30.7742753  11.0341673
  30.6610113  30.2032753  11.5641673  30.1740113  34.2662753  15.7651673
  29.4210113  34.2482753  15.3241673  30.3420113  35.1182753  15.8491673
  30.0880113  34.3892753  15.7121673  25.4110113  23.5332753  14.9351673
  25.0890113  22.9572753  14.3651673  25.0520113  24.2882753  14.6891673
  25.3110113  23.5592753  14.8151673  35.4520113  28.6912753  10.9771673
  35.4200113  27.8292753  10.8421673  34.7590113  28.9932753  10.5431673
  35.3450113  28.6082753  10.8931673  23.8460113  33.8892753  15.1831673
  23.8870113  34.0152753  16.0461673  24.4970113  33.3292753  15.0271673
  23.9480113  33.8252753  15.2881673  33.5570113  31.9512753   9.7741673
  34.0840113  31.8682753   9.0831673  33.1660113  31.1732753   9.8281673
  33.5770113  31.8242753   9.6801673  21.0250113  18.5392753  12.0051673
  20.6820113  17.7722753  11.7711673  20.3300113  19.0632753  12.0691673
  20.8720113  18.5032753  11.9801673  30.0710113  17.3952753   8.9821673
  30.7410113  17.9392753   9.1091673  29.5680113  17.8192753   8.4091673
  30.0960113  17.5382753   8.9161673  21.4390113  32.2722753  16.5431673
  22.0340113  32.7032753  17.0151673  21.0750113  32.8962753  16.0541673
  21.4730113  32.4282753  16.5401673  29.4300113  23.2032753   6.4751673
  29.9810113  22.5962753   6.7751673  29.0050113  23.4662753   7.1901673
  29.4490113  23.1522753   6.6241673  19.6780113  21.8532753   5.9611673
  19.3100113  22.1552753   6.6921673  20.2120113  21.2242753   6.2451673
  19.7020113  21.8052753   6.1111673  19.3660113  30.2612753  13.4721673
  18.7920113  30.6772753  13.9811673  20.0990113  30.7262753  13.5671673
  19.3900113  30.3912753  13.5611673  31.4000113  25.0342753   3.0371673
  31.4680113  24.1842753   3.2181673  30.5770113  25.1202753   2.7591673
  31.2880113  24.9212753   3.0231673  21.1520113  33.5282753   2.2471673
  21.0070113  33.6842753   1.4011673  22.0180113  33.6072753   2.3251673
  21.2590113  33.5632753   2.1341673  34.6740113  26.4072753  16.1881673
  35.3080113  26.2372753  16.7621673  35.0910113  26.8102753  15.5361673
  34.8290113  26.4422753  16.1771673  30.5540113  30.2542753   1.7771673
  30.3030113  30.1262753   2.6031673  30.2370113  29.5592753   1.3561673
  30.4700113  30.1332753   1.8371673  35.2990113  20.9712753  16.9261673
  35.1030113  21.6152753  17.4811673  34.5770113  20.4812753  16.9181673
  35.1640113  20.9942753  17.0071673  35.1980113  21.9122753   9.8971673
  34.3650113  22.1622753   9.8251673  35.1420113  21.0722753  10.1261673
  35.0670113  21.8252753   9.9201673  24.4580113  18.9002753  15.0911673
  24.6920113  18.3242753  14.4781673  23.6160113  18.7192753  15.2321673
  24.3680113  18.7882753  15.0211673  32.0850113  26.5182753  17.5431673
  32.9560113  26.4822753  17.5071673  31.8660113  26.9382753  16.8111673
  32.1820113  26.5742753  17.4301673  21.8390113  32.3432753   8.7241673
  21.7600113  31.5332753   8.4081673  21.3950113  32.8302753   8.1521673
  21.7620113  32.2952753   8.5931673  19.4110113  34.5872753  12.3051673
  19.9040113  34.5312753  13.0231673  19.5990113  33.8542753  11.8701673
  19.5120113  34.4702753  12.3471673  28.6580113   5.5411673  85.1481313
  28.1340113   6.1371673  85.5111313  29.0550113   5.1731673  85.8321313
  28.6390113   5.5751673  85.3031313  18.5270113   9.6811673  80.6041313
  18.0860113   9.7991673  81.3471313  18.2440113   8.9061673  80.3191313
  18.4200113   9.5841673  80.6721313  34.8020113  12.9821673  78.1191313
  35.5030113  12.4631673  78.1151313  34.2150113  12.5371673  77.6501313
  34.8190113  12.8391673  78.0491313  18.2700113   3.4731673  77.1111313
  17.4920113   3.6351673  76.7511313  18.3090113   2.6021673  77.1331313
  18.1610113   3.3681673  77.0611313  21.4090113   8.7361673  75.7831313
  21.0170113   8.3651673  75.0971313  21.3290113   8.1381673  76.4121313
  21.3390113   8.5931673  75.7741313  31.3290113   6.6081673  81.8241313
  31.4090113   6.6121673  80.9551313  30.7450113   5.9761673  81.9731313
  31.2540113   6.5151673  81.7181313  21.0360113  10.3771673  79.6831313
  21.6440113  10.2071673  80.2861313  20.2850113  10.2371673  80.1041313
  21.0150113  10.3311673  79.8341313  19.9270113  13.4681673  75.7601313
  20.3940113  13.5521673  75.0281313  20.3820113  12.8901673  76.2291313
  20.0630113  13.3951673  75.7211313  18.4670113  12.4161673  86.8591313
  18.5960113  12.1361673  87.6751313  17.8570113  11.8751673  86.5501313
  18.3960113  12.2951673  86.9341313  19.9130113   6.9371673  81.0611313
  19.4510113   6.5451673  80.4341313  20.6130113   6.4241673  81.1531313
  19.9480113   6.8041673  80.9821313  25.0230113  13.1331673  89.1891313
  25.1610113  13.8931673  88.7821313  25.8140113  12.7681673  89.2161313
  25.1600113  13.1921673  89.1331313  21.9140113   5.0371673  81.0841313
  22.7310113   4.8501673  81.3271313  21.4370113   4.4231673  81.4801313
  21.9640113   4.9191673  81.1791313  26.1180113  11.0181673  83.6941313
  26.4660113  10.2191673  83.7241313  26.7830113  11.5221673  83.4391313
  26.2680113  10.9741673  83.6611313  26.1750113  10.4671673  79.9051313
  26.5060113   9.8231673  80.3911313  26.4150113  10.2561673  79.0941313
  26.2590113  10.3411673  79.8571313  18.3690113   4.6981673  84.0741313
  18.1130113   5.5291673  83.9991313  17.7050113   4.3151673  84.4911313
  18.2330113   4.7641673  84.1251313  18.2790113  14.4081673  81.9741313
  17.6870113  14.9661673  81.6611313  18.7050113  14.1391673  81.2621313
  18.2550113  14.4501673  81.8231313  24.1190113  12.2521673  79.4541313
  23.5400113  11.9771673  80.0461313  24.7430113  11.6431673  79.4791313
  24.1260113  12.1221673  79.5451313  30.2620113  14.5401673  76.9761313
  30.9890113  15.0121673  77.0781313  30.4910113  13.7461673  77.2561313
  30.4040113  14.4931673  77.0331313  28.4300113  14.9321673  78.9661313
  28.6440113  15.4591673  79.6281313  29.1970113  14.7581673  78.5871313
  28.5750113  14.9841673  79.0081313  19.8240113  13.0781673  79.9051313
  20.4800113  12.5031673  79.9201313  20.2130113  13.8271673  79.6841313
  19.9790113  13.1031673  79.8751313  30.8690113  14.9421673  87.2711313
  31.6130113  15.3981673  87.2611313  30.7480113  14.7281673  86.4341313
  30.9610113  14.9781673  87.1461313  20.6420113  11.5651673  83.4051313
  21.0650113  11.2091673  82.7311313  20.9660113  11.1431673  84.0971313
  20.7520113  11.4501673  83.4081313  23.8730113  14.4171673  82.7011313
  24.7170113  14.5211673  82.5061313  23.5760113  15.2351673  82.7691313
  23.9540113  14.5531673  82.6821313  27.6800113   3.8141673  80.7881313
  27.9670113   3.5821673  79.9981313  28.4120113   3.8931673  81.2571313
  27.8300113   3.7911673  80.7411313  28.4020113   4.1531673  75.9091313
  28.6830113   4.9411673  76.1581313  27.6260113   4.3181673  75.5461313
  28.3290113   4.2941673  75.8921313  32.4430113  16.1271673  77.3761313
  33.1080113  15.9791673  76.8311313  32.8030113  16.0441673  78.1661313
  32.5950113  16.0931673  77.4121313  22.8710113  15.6361673  88.4411313
  23.1630113  15.5691673  89.2611313  22.2450113  15.0311673  88.3961313
  22.8220113  15.5371673  88.5561313  17.7850113   1.7931673  90.4331313
  17.7810113   2.3801673  91.0791313  18.3790113   2.1051673  89.8761313
  17.8720113   1.9261673  90.4461313  27.2610113  12.3241673  75.7251313
  27.0800113  12.8691673  76.3821313  28.0270113  12.6141673  75.4241313
  27.3470113  12.4481673  75.7781313  20.8640113  13.7981673  87.5631313
  20.1660113  13.2901673  87.6891313  21.1240113  13.5931673  86.7551313
  20.7990113  13.6931673  87.4621313  28.0260113   2.5961673  78.0931313
  27.5180113   1.9341673  77.8391313  28.0780113   3.1001673  77.3831313
  27.9590113   2.5731673  77.9511313  28.5750113  15.2911673  88.4731313
  29.3430113  15.2111673  88.0671313  27.9920113  15.1701673  87.8351313
  28.6020113  15.2611673  88.3191313  34.8520113  15.8941673  81.3741313
  34.3970113  16.6111673  81.5751313  34.2380113  15.3231673  81.1321313
  34.6940113  15.9161673  81.3681313  26.6240113   1.9041673  82.5061313
  26.6980113   2.4721673  81.8481313  26.7450113   2.3961673  83.2161313
  26.6520113   2.0611673  82.5141313  31.8490113  11.7391673  80.9181313
  32.5500113  11.2571673  81.1071313  31.1890113  11.1701673  80.9631313
  31.8550113  11.5841673  80.9521313  22.2250113  12.6491673  90.1301313
  23.0660113  12.7121673  89.9081313  22.1880113  13.0461673  90.9061313
  22.3440113  12.7171673  90.2121313  24.1880113   8.1601673  84.8791313
  24.3600113   7.9501673  85.7081313  23.5330113   7.6261673  84.6631313
  24.1170113   8.0501673  84.9701313  24.9380113   8.0981673  87.4691313
  24.9910113   8.9451673  87.6711313  24.6530113   7.7281673  88.2061313
  24.9040113   8.1681673  87.6071313  31.1150113   8.7931673  86.5991313
  30.6010113   8.3811673  87.1701313  30.9890113   9.6371673  86.7801313
  31.0210113   8.8571673  86.7101313  34.1360113   2.2541673  89.5381313
  34.9080113   2.0291673  89.8751313  33.6610113   2.4711673  90.2381313
  34.1800113   2.2531673  89.6911313  34.3680113   9.2321673  76.7261313
  34.4870113   8.9451673  77.5411313  35.1750113   9.2531673  76.3961313
  34.5040113   9.1931673  76.7981313  21.5040113   8.9641673  82.0571313
  22.3550113   8.8841673  81.8841313  21.1470113   8.2821673  81.6451313
  21.5770113   8.8511673  81.9701313  20.2710113  15.6891673  83.2941313
  19.5980113  15.1911673  83.0491313  20.6740113  15.8741673  82.5431313
  20.2310113  15.6431673  83.1471313  19.8210113   2.6391673  85.5901313
  20.6640113   2.8591673  85.5471313  19.4320113   3.2121673  85.0591313
  19.8880113   2.7561673  85.5051313  32.2630113   5.7691673  76.3111313
  32.0430113   6.5001673  75.8891313  31.8150113   5.8201673  77.0581313
  32.1640113   5.8841673  76.3591313  23.8720113   8.9711673  80.2921313
  24.5850113   9.4661673  80.3821313  24.0940113   8.4041673  79.6661313
  24.0100113   8.9601673  80.2131313  18.0280113  10.6141673  83.6121313
  17.3610113  11.1021673  83.8881313  18.7080113  11.1591673  83.6411313
  18.0300113  10.7661673  83.6571313  36.7730113   5.0081673  88.3201313
  36.9880113   4.2081673  88.0441313  35.9230113   5.0681673  88.1311313
  36.6790113   4.8991673  88.2511313  18.0940113   7.2981673  78.7151313
  17.9090113   6.4591673  78.8671313  18.7530113   7.2621673  78.1451313
  18.1640113   7.1691673  78.6531313  28.3950113  12.6741673  82.6191313
  27.8720113  13.3081673  82.3261313  28.7050113  12.3101673  81.8901313
  28.3630113  12.7141673  82.4681313  18.2660113  11.4621673  78.2901313
  18.8180113  12.0311673  78.6541313  18.0340113  10.9471673  78.9551313
  18.3130113  11.4701673  78.4421313  22.4700113  10.4621673  85.3791313
  22.9370113  10.7511673  86.0571313  23.0420113   9.9841673  84.9251313
  22.6240113  10.4341673  85.4121313  18.0960113   9.9111673  75.9181313
  18.8520113   9.4791673  75.9761313  18.1110113  10.4431673  76.6091313
  18.2100113   9.9261673  76.0291313  19.0360113   8.1321673  83.9231313
  19.4670113   8.0031673  83.1761313  18.8310113   8.9801673  83.8971313
  19.0690113   8.2381673  83.8091313  34.4360113  14.1231673  89.0701313
  33.7650113  14.6371673  89.2881313  34.4990113  14.2231673  88.2061313
  34.3460113  14.2141673  88.9751313  23.1200113  11.6481673  82.2051313
  23.2460113  12.4911673  82.3921313  23.7880113  11.2491673  82.6011313
  23.2380113  11.7141673  82.2911313  21.7350113   4.5281673  77.2071313
  21.6070113   4.0801673  77.9451313  21.1530113   4.1861673  76.6551313
  21.6300113   4.4111673  77.2351313  21.9020113   6.3581673  83.8061313
  21.1210113   6.2991673  83.4231313  21.9740113   5.6061673  84.2431313
  21.7970113   6.2391673  83.8141313  22.3320113   6.0951673  87.2741313
  22.3570113   5.4201673  86.7231313  21.6860113   6.5911673  86.9621313
  22.2410113   6.0681673  87.1471313  32.2270113   3.8081673  85.6701313
  31.5650113   4.1361673  86.1331313  32.4140113   4.4421673  85.1011313
  32.1570113   3.9501673  85.6541313  26.4320113  14.8721673  86.6661313
  26.1550113  14.2311673  86.1431313  26.2240113  15.5981673  86.2281313
  26.3610113  14.8851673  86.5241313  30.4200113   1.7771673  79.1811313
  30.9100113   2.4941673  79.1041313  29.6300113   2.0381673  78.9181313
  30.3760113   1.9211673  79.1311313  31.7340113   9.6551673  91.0911313
  32.2180113  10.3731673  91.1891313  32.1280113   9.2281673  90.4401313
  31.8640113   9.6981673  91.0091313  27.0020113   3.2471673  84.9061313
  27.4820113   3.9461673  85.1141313  27.3750113   2.6001673  85.3571313
  27.1280113   3.2551673  85.0031313  29.1910113   6.4161673  77.1801313
  29.1830113   7.1381673  76.6901313  28.5520113   6.5511673  77.7571313
  29.0960113   6.5431673  77.1931313  34.1630113  10.2861673  81.1611313
  34.5190113   9.9361673  81.8761313  34.1550113   9.6251673  80.5911313
  34.2150113  10.1361673  81.1821313  30.2080113  13.3521673  85.0051313
  29.6050113  13.0561673  84.4481313  30.7530113  13.8041673  84.4961313
  30.1990113  13.3751673  84.8471313  30.2210113  10.2031673  84.4051313
  29.4240113  10.4271673  84.6791313  30.4790113   9.6091673  84.9901313
  30.1410113  10.1481673  84.5321313  24.1130113  15.0151673  78.8531313
  23.9660113  14.2391673  79.2241313  24.8020113  14.8681673  78.3381313
  24.1930113  14.8781673  78.8321313  26.4050113  14.5311673  77.2551313
  27.0270113  14.6941673  77.8451313  26.4410113  15.2221673  76.7231313
  26.5020113  14.6571673  77.2641313  33.4810113   8.2011673  89.2511313
  33.5360113   8.3261673  88.3891313  34.2340113   8.5211673  89.5531313
  33.6000113   8.2661673  89.1681313  20.9060113   7.0651673  78.0841313
  21.2300113   6.2861673  77.8621313  21.5520113   7.4331673  78.5391313
  21.0490113   7.0041673  78.1181313  29.2120113   8.0071673  88.8511313
  29.0570113   8.6171673  89.4551313  29.7460113   7.4491673  89.2571313
  29.2680113   8.0151673  89.0001313  27.5960113   6.4071673  79.5091313
  27.6550113   7.0571673  80.0881313  27.4070113   5.7111673  80.0001313
  27.5770113   6.4001673  79.6671313  32.8220113  10.7361673  85.3781313
  32.3430113  11.0341673  84.7121313  32.4660113   9.9601673  85.5561313
  32.6990113  10.6651673  85.3061313  26.8190113   8.4541673  83.9401313
  25.9720113   8.2601673  84.0211313  27.1430113   8.2891673  84.7331313
  26.7410113   8.4011673  84.0691313  23.5710113  15.1841673  74.8261313
  24.0100113  14.4871673  75.1141313  23.7780113  15.8081673  75.3991313
  23.6670113  15.1731673  74.9531313  20.6670113   8.1471673  86.2561313
  21.3890113   8.6351673  86.2191313  20.3970113   8.1171673  85.4271313
  20.7340113   8.2151673  86.1281313  23.8970113   3.3181673  82.9911313
  24.7430113   3.1281673  83.0891313  23.5270113   2.5411673  82.8531313
  23.9670113   3.1751673  82.9851313  36.5140113  14.9021673  77.3181313
  37.2080113  14.4351673  77.0701313  35.9750113  14.3041673  77.6551313
  36.5370113  14.7441673  77.3311313  18.7180113   4.6561673  79.6461313
  19.2070113   4.3641673  80.3071313  18.8470113   4.0631673  79.0191313
  18.8090113   4.5251673  79.6511313  33.7530113   7.6781673  86.4971313
  33.7460113   6.9021673  86.8951313  32.9120113   7.9121673  86.4901313
  33.6280113   7.5981673  86.5551313  23.2430113   6.0901673  75.1321313
  22.6330113   5.6851673  75.6061313  22.8570113   6.2081673  74.3591313
  23.0960113   6.0471673  75.0881313  20.0620113   9.1991673  90.5341313
  19.6410113   8.6811673  89.9731313  19.7100113   9.9851673  90.3911313
  19.9480113   9.2391673  90.4301313  35.0090113   7.7491673  83.9341313
  34.7230113   8.1501673  84.6541313  35.8690113   7.6871673  84.0611313
  35.0940113   7.7991673  84.0591313  24.6980113   4.5511673  77.8421313
  24.9700113   5.3771673  77.9091313  23.8350113   4.6261673  77.7461313
  24.6110113   4.6841673  77.8371313  36.1400113  13.3821673  84.4631313
  36.4300113  13.6391673  83.6821313  36.8350113  13.4781673  84.9821313
  36.2860113  13.4341673  84.4241313  32.7450113  11.9851673  76.4451313
  33.0790113  11.1791673  76.4801313  31.9900113  11.9131673  76.8751313
  32.6830113  11.8551673  76.5141313  33.2270113   3.8191673  82.1041313
  32.4820113   3.4961673  82.4221313  33.2290113   4.6451673  82.3841313
  33.1170113   3.8931673  82.1921313  35.6670113   9.7791673  89.8561313
  36.2950113   9.2301673  89.6001313  35.6060113  10.3441673  89.1941313
  35.7510113   9.7821673  89.7201313  30.1190113   9.8601673  75.8481313
  30.8030113   9.3461673  75.6791313  29.7020113   9.9061673  75.0831313
  30.1580113   9.7911673  75.7101313  24.8010113  11.0101673  87.1521313
  24.5030113  11.6021673  87.7191313  24.8560113  11.4521673  86.4031313
  24.7650113  11.1631673  87.1251313  22.7800113   9.9601673  90.5501313
  21.9740113   9.6701673  90.7171313  22.6910113  10.8281673  90.5561313
  22.6480113  10.0451673  90.5751313  27.3170113   7.4331673  86.6431313
  27.7930113   7.8071673  87.2711313  26.4940113   7.5671673  86.9021313
  27.2660113   7.5081673  86.7741313  24.0270113   3.0361673  89.3841313
  24.1880113   2.2921673  89.8111313  23.9820113   2.7871673  88.5491313
  24.0440113   2.8891673  89.3241313  26.5810113  14.8261673  81.8711313
  27.1270113  15.5051673  81.9251313  26.2310113  14.9081673  81.0761313
  26.6100113  14.9391673  81.7611313  24.7640113  13.0541673  85.2601313
  24.1400113  13.6361673  85.0781313  25.0120113  12.7681673  84.4741313
  24.7080113  13.0981673  85.1171313  34.8450113   4.3841673  76.0921313
  35.2230113   5.0611673  75.6921313  34.0030113   4.6081673  76.1231313
  34.7760113   4.5171673  76.0371313  26.3580113   7.8301673  75.1751313
  25.5530113   7.6531673  74.8901313  26.3250113   8.6811673  75.3671313
  26.2340113   7.9291673  75.1621313  22.2880113   3.8971673  85.3251313
  22.7280113   3.7941673  84.5791313  22.8330113   3.5841673  85.9301313
  22.4330113   3.8361673  85.3041313  29.9920113   4.5361673  87.2151313
  30.2940113   4.9561673  87.9181313  30.0280113   3.6961673  87.4471313
  30.0420113   4.4741673  87.3531313  32.5400113   3.9831673  79.4671313
  32.7470113   3.7821673  80.2911313  33.2960113   4.2511673  79.1251313
  32.6820113   3.9931673  79.5381313  34.0050113   8.0101673  79.3211313
  34.4810113   7.2811673  79.2731313  33.1840113   7.7241673  79.2451313
  33.9540113   7.8601673  79.3021313  27.4760113   9.9221673  90.1601313
  26.6810113   9.8581673  90.5111313  27.5470113  10.7691673  89.9651313
  27.3690113  10.0371673  90.1831313  23.3060113  16.1291673  85.4771313
  23.3170113  16.1881673  86.3471313  22.8810113  15.3821673  85.3271313
  23.2450113  16.0271673  85.5831313  30.2210113   9.1771673  81.6761313
  30.2970113   9.5181673  82.4751313  30.3900113   8.3301673  81.7971313
  30.2570113   9.1021673  81.8121313  27.7430113   8.4511673  81.2411313
  27.4450113   8.1361673  81.9981313  28.4380113   8.9241673  81.4761313
  27.8020113   8.4741673  81.3881313  27.9650113  12.5691673  89.2681313
  28.6520113  12.4551673  89.7931313  28.0990113  13.3601673  88.9241313
  28.0860113  12.6691673  89.2951313  36.1410113   5.1781673  91.0791313
  35.2860113   5.0561673  91.2051313  36.2940113   4.7831673  90.3161313
  36.0370113   5.1011673  90.9851313  30.6540113   5.8431673  89.6551313
  30.3990113   5.1241673  90.0771313  31.4750113   5.9591673  89.9251313
  30.7380113   5.7541673  89.7571313  20.0700113  15.6271673  90.9191313
  19.4160113  15.0581673  91.0171313  19.6950113  16.4001673  91.0701313
  19.9180113  15.6571673  90.9561313  31.6720113  15.4071673  83.7711313
  31.2210113  16.0501673  84.1501313  32.3800113  15.3281673  84.2761313
  31.7100113  15.4901673  83.9021313  28.3730113  10.4971673  86.7011313
  27.6790113  10.8991673  87.0441313  29.0500113  10.9301673  87.0401313
  28.3700113  10.6201673  86.8021313  21.4410113   4.0351673  89.0481313
  21.8160113   4.6541673  88.5611313  22.1150113   3.5611673  89.3331313
  21.5960113   4.0571673  89.0181313  19.2160113   2.4831673  88.3231313
  19.2930113   2.3141673  87.4701313  19.9620113   2.8891673  88.5201313
  19.3370113   2.5181673  88.2261313  34.7750113   5.1231673  78.7631313
  34.8780113   5.0651673  77.8991313  35.5160113   4.7911673  79.0811313
  34.9000113   5.0661673  78.6821313  28.6950113  12.0881673  79.8701313
  28.4900113  12.9211673  79.7111313  27.9200113  11.7061673  79.9921313
  28.5500113  12.1551673  79.8651313  33.8770113   5.2691673  88.1191313
  33.8750113   4.4061673  88.2431313  33.9440113   5.5931673  88.9261313
  33.8870113   5.1891673  88.2561313  18.6130113   7.7091673  88.5471313
  18.9330113   7.9281673  87.7661313  18.5130113   6.8441673  88.4921313
  18.6450113   7.6141673  88.4241313  20.0690113   3.6451673  75.1651313
  19.3970113   3.6591673  75.7211313  20.1640113   2.7971673  74.9811313
  19.9840113   3.5221673  75.2201313  24.0570113  12.3501673  76.2791313
  24.4980113  12.4301673  77.0271313  23.2520113  12.1341673  76.5371313
  24.0030113  12.3301673  76.4281313  23.3760113   7.0011673  89.9321313
  22.9800113   7.7751673  90.0071313  22.9700113   6.6281673  89.2561313
  23.2580113   7.0601673  89.8431313  32.6520113   6.0551673  84.0461313
  33.3180113   6.5961673  84.2061313  32.3070113   6.3661673  83.3071313
  32.6990113   6.1811673  83.9611313  32.9650113  14.1211673  79.8531313
  32.7910113  13.4671673  80.4031313  33.6780113  13.8501673  79.4301313
  33.0450113  13.9841673  79.8721313  21.3860113  11.4201673  76.8801313
  21.1420113  11.1131673  77.6601313  21.3530113  10.7171673  76.3641313
  21.3450113  11.2711673  76.9191313  24.2050113   9.6651673  75.6231313
  23.3870113   9.3971673  75.7631313  24.1770113  10.5171673  75.8081313
  24.0800113   9.7521673  75.6711313  30.6400113  11.5741673  87.5441313
  30.8460113  11.8751673  88.3361313  30.5790113  12.2961673  87.0591313
  30.6610113  11.7251673  87.5891313  25.4110113   5.0551673  90.9601313
  25.0890113   4.4791673  90.3901313  25.0520113   5.8101673  90.7141313
  25.3110113   5.0811673  90.8401313  35.4520113  10.2131673  87.0021313
  35.4200113   9.3511673  86.8671313  34.7590113  10.5151673  86.5681313
  35.3450113  10.1301673  86.9181313  33.5570113  13.4731673  85.7991313
  34.0840113  13.3901673  85.1081313  33.1660113  12.6951673  85.8531313
  33.5770113  13.3461673  85.7051313  29.4300113   4.7251673  82.5001313
  29.9810113   4.1181673  82.8001313  29.0050113   4.9881673  83.2151313
  29.4490113   4.6741673  82.6491313  19.6780113   3.3751673  81.9861313
  19.3100113   3.6771673  82.7171313  20.2120113   2.7461673  82.2701313
  19.7020113   3.3271673  82.1361313  19.3660113  11.7831673  89.4971313
  18.7920113  12.1991673  90.0061313  20.0990113  12.2481673  89.5921313
  19.3900113  11.9131673  89.5861313  31.4000113   6.5561673  79.0621313
  31.4680113   5.7061673  79.2431313  30.5770113   6.6421673  78.7841313
  31.2880113   6.4431673  79.0481313  21.1520113  15.0501673  78.2721313
  21.0070113  15.2061673  77.4261313  22.0180113  15.1291673  78.3501313
  21.2590113  15.0851673  78.1591313  25.3190113   7.4471673  78.0001313
  25.4190113   7.5861673  77.1451313  26.1370113   7.3871673  78.2961313
  25.4540113   7.4581673  77.9171313  34.4790113  15.5111673  75.4801313
  35.1160113  15.3771673  76.0611313  34.1380113  14.7171673  75.3631313
  34.5230113  15.3741673  75.5481313  30.5540113  11.7761673  77.8021313
  30.3030113  11.6481673  78.6281313  30.2370113  11.0811673  77.3811313
  30.4700113  11.6551673  77.8621313  35.1980113   3.4341673  85.9221313
  34.3650113   3.6841673  85.8501313  35.1420113   2.5941673  86.1511313
  35.0670113   3.3471673  85.9451313  21.8390113  13.8651673  84.7491313
  21.7600113  13.0551673  84.4331313  21.3950113  14.3521673  84.1771313
  21.7620113  13.8171673  84.6181313  27.4400113   9.9841673  77.2321313
  28.1570113   9.6371673  76.8761313  27.4060113  10.7841673  76.8841313
  27.5410113  10.0511673  77.1281313  19.4110113  16.1091673  88.3301313
  19.9040113  16.0531673  89.0481313  19.5990113  15.3761673  87.8951313
  19.5120113  15.9921673  88.3721313  28.6580113   5.5411673  66.1418903
  28.1340113   6.1371673  66.5048903  29.0550113   5.1731673  66.8258903
  28.6390113   5.5751673  66.2968903  18.5270113   9.6811673  61.5978903
  18.0860113   9.7991673  62.3408903  18.2440113   8.9061673  61.3128903
  18.4200113   9.5841673  61.6658903  34.8020113  12.9821673  59.1128903
  35.5030113  12.4631673  59.1088903  34.2150113  12.5371673  58.6438903
  34.8190113  12.8391673  59.0428903  18.2700113   3.4731673  58.1048903
  17.4920113   3.6351673  57.7448903  18.3090113   2.6021673  58.1268903
  18.1610113   3.3681673  58.0548903  21.4090113   8.7361673  56.7768903
  21.0170113   8.3651673  56.0908903  21.3290113   8.1381673  57.4058903
  21.3390113   8.5931673  56.7678903  31.3290113   6.6081673  62.8178903
  31.4090113   6.6121673  61.9488903  30.7450113   5.9761673  62.9668903
  31.2540113   6.5151673  62.7118903  21.0360113  10.3771673  60.6768903
  21.6440113  10.2071673  61.2798903  20.2850113  10.2371673  61.0978903
  21.0150113  10.3311673  60.8278903  19.9270113  13.4681673  56.7538903
  20.3940113  13.5521673  56.0218903  20.3820113  12.8901673  57.2228903
  20.0630113  13.3951673  56.7148903  18.4670113  12.4161673  67.8528903
  18.5960113  12.1361673  68.6688903  17.8570113  11.8751673  67.5438903
  18.3960113  12.2951673  67.9278903  25.0410113   9.9411673  72.9198903
  24.8050113   9.9381673  73.7598903  24.2930113   9.7931673  72.4958903
  24.8950113   9.9181673  72.9808903  19.9130113   6.9371673  62.0548903
  19.4510113   6.5451673  61.4278903  20.6130113   6.4241673  62.1468903
  19.9480113   6.8041673  61.9758903  25.0230113  13.1331673  70.1828903
  25.1610113  13.8931673  69.7758903  25.8140113  12.7681673  70.2098903
  25.1600113  13.1921673  70.1268903  21.9140113   5.0371673  62.0778903
  22.7310113   4.8501673  62.3208903  21.4370113   4.4231673  62.4738903
  21.9640113   4.9191673  62.1728903  26.1180113  11.0181673  64.6878903
  26.4660113  10.2191673  64.7178903  26.7830113  11.5221673  64.4328903
  26.2680113  10.9741673  64.6548903  26.1750113  10.4671673  60.8988903
  26.5060113   9.8231673  61.3848903  26.4150113  10.2561673  60.0878903
  26.2590113  10.3411673  60.8508903  28.1430113   4.5981673  72.2378903
  27.2950113   4.4991673  72.0598903  28.1720113   5.3431673  72.6918903
  28.0220113   4.6941673  72.2788903  18.3690113   4.6981673  65.0678903
  18.1130113   5.5291673  64.9928903  17.7050113   4.3151673  65.4848903
  18.2330113   4.7641673  65.1188903  18.2790113  14.4081673  62.9678903
  17.6870113  14.9661673  62.6548903  18.7050113  14.1391673  62.2558903
  18.2550113  14.4501673  62.8168903  24.1190113  12.2521673  60.4478903
  23.5400113  11.9771673  61.0398903  24.7430113  11.6431673  60.4728903
  24.1260113  12.1221673  60.5388903  30.2620113  14.5401673  57.9698903
  30.9890113  15.0121673  58.0718903  30.4910113  13.7461673  58.2498903
  30.4040113  14.4931673  58.0268903  28.4300113  14.9321673  59.9598903
  28.6440113  15.4591673  60.6218903  29.1970113  14.7581673  59.5808903
  28.5750113  14.9841673  60.0018903  19.8240113  13.0781673  60.8988903
  20.4800113  12.5031673  60.9138903  20.2130113  13.8271673  60.6778903
  19.9790113  13.1031673  60.8688903  30.8690113  14.9421673  68.2648903
  31.6130113  15.3981673  68.2548903  30.7480113  14.7281673  67.4278903
  30.9610113  14.9781673  68.1398903  20.6420113  11.5651673  64.3988903
  21.0650113  11.2091673  63.7248903  20.9660113  11.1431673  65.0908903
  20.7520113  11.4501673  64.4018903  23.8730113  14.4171673  63.6948903
  24.7170113  14.5211673  63.4998903  23.5760113  15.2351673  63.7628903
  23.9540113  14.5531673  63.6758903  27.6800113   3.8141673  61.7818903
  27.9670113   3.5821673  60.9918903  28.4120113   3.8931673  62.2508903
  27.8300113   3.7911673  61.7348903  28.4020113   4.1531673  56.9028903
  28.6830113   4.9411673  57.1518903  27.6260113   4.3181673  56.5398903
  28.3290113   4.2941673  56.8858903  32.4430113  16.1271673  58.3698903
  33.1080113  15.9791673  57.8248903  32.8030113  16.0441673  59.1598903
  32.5950113  16.0931673  58.4058903  22.8710113  15.6361673  69.4348903
  23.1630113  15.5691673  70.2548903  22.2450113  15.0311673  69.3898903
  22.8220113  15.5371673  69.5498903  17.7850113   1.7931673  71.4268903
  17.7810113   2.3801673  72.0728903  18.3790113   2.1051673  70.8698903
  17.8720113   1.9261673  71.4398903  30.1230113  12.1271673  71.9688903
  30.0890113  12.5091673  72.7528903  30.9770113  12.0851673  71.7978903
  30.2440113  12.1771673  72.0598903  27.2610113  12.3241673  56.7188903
  27.0800113  12.8691673  57.3758903  28.0270113  12.6141673  56.4178903
  27.3470113  12.4481673  56.7718903  20.8640113  13.7981673  68.5568903
  20.1660113  13.2901673  68.6828903  21.1240113  13.5931673  67.7488903
  20.7990113  13.6931673  68.4558903  28.0260113   2.5961673  59.0868903
  27.5180113   1.9341673  58.8328903  28.0780113   3.1001673  58.3768903
  27.9590113   2.5731673  58.9448903  28.5750113  15.2911673  69.4668903
  29.3430113  15.2111673  69.0608903  27.9920113  15.1701673  68.8288903
  28.6020113  15.2611673  69.3128903  26.6240113   1.9041673  63.4998903
  26.6980113   2.4721673  62.8418903  26.7450113   2.3961673  64.2098903
  26.6520113   2.0611673  63.5078903  31.8490113  11.7391673  61.9118903
  32.5500113  11.2571673  62.1008903  31.1890113  11.1701673  61.9568903
  31.8550113  11.5841673  61.9458903  22.2250113  12.6491673  71.1238903
  23.0660113  12.7121673  70.9018903  22.1880113  13.0461673  71.8998903
  22.3440113  12.7171673  71.2058903  24.1880113   8.1601673  65.8728903
  24.3600113   7.9501673  66.7018903  23.5330113   7.6261673  65.6568903
  24.1170113   8.0501673  65.9638903  24.9380113   8.0981673  68.4628903
  24.9910113   8.9451673  68.6648903  24.6530113   7.7281673  69.1998903
  24.9040113   8.1681673  68.6008903  31.1150113   8.7931673  67.5928903
  30.6010113   8.3811673  68.1638903  30.9890113   9.6371673  67.7738903
  31.0210113   8.8571673  67.7038903  17.7590113  12.4691673  74.6738903
  18.5150113  12.8181673  74.9318903  17.9360113  11.6161673  74.6168903
  17.8970113  12.3941673  74.7038903  34.1360113   2.2541673  70.5318903
  34.9080113   2.0291673  70.8688903  33.6610113   2.4711673  71.2318903
  34.1800113   2.2531673  70.6848903  34.3680113   9.2321673  57.7198903
  34.4870113   8.9451673  58.5348903  35.1750113   9.2531673  57.3898903
  34.5040113   9.1931673  57.7918903  21.5040113   8.9641673  63.0508903
  22.3550113   8.8841673  62.8778903  21.1470113   8.2821673  62.6388903
  21.5770113   8.8511673  62.9638903  20.2710113  15.6891673  64.2878903
  19.5980113  15.1911673  64.0428903  20.6740113  15.8741673  63.5368903
  20.2310113  15.6431673  64.1408903  19.8210113   2.6391673  66.5838903
  20.6640113   2.8591673  66.5408903  19.4320113   3.2121673  66.0528903
  19.8880113   2.7561673  66.4988903  36.6020113  13.7411673  71.9738903
  35.9200113  14.0511673  71.5268903  36.2330113  13.2831673  72.6188903
  36.4460113  13.7191673  72.0028903  32.2630113   5.7691673  57.3048903
  32.0430113   6.5001673  56.8828903  31.8150113   5.8201673  58.0518903
  32.1640113   5.8841673  57.3528903  23.8720113   8.9711673  61.2858903
  24.5850113   9.4661673  61.3758903  24.0940113   8.4041673  60.6598903
  24.0100113   8.9601673  61.2068903  18.0280113  10.6141673  64.6058903
  17.3610113  11.1021673  64.8818903  18.7080113  11.1591673  64.6348903
  18.0300113  10.7661673  64.6508903  25.6750113   4.3241673  74.7018903
  25.1910113   4.9011673  75.1438903  25.6470113   4.6191673  73.8808903
  25.5990113   4.4531673  74.6458903  36.7730113   5.0081673  69.3138903
  36.9880113   4.2081673  69.0378903  35.9230113   5.0681673  69.1248903
  36.6790113   4.8991673  69.2448903  18.0940113   7.2981673  59.7088903
  17.9090113   6.4591673  59.8608903  18.7530113   7.2621673  59.1388903
  18.1640113   7.1691673  59.6468903  28.3950113  12.6741673  63.6128903
  27.8720113  13.3081673  63.3198903  28.7050113  12.3101673  62.8838903
  28.3630113  12.7141673  63.4618903  18.2660113  11.4621673  59.2838903
  18.8180113  12.0311673  59.6478903  18.0340113  10.9471673  59.9488903
  18.3130113  11.4701673  59.4358903  22.4700113  10.4621673  66.3728903
  22.9370113  10.7511673  67.0508903  23.0420113   9.9841673  65.9188903
  22.6240113  10.4341673  66.4058903  18.0960113   9.9111673  56.9118903
  18.8520113   9.4791673  56.9698903  18.1110113  10.4431673  57.6028903
  18.2100113   9.9261673  57.0228903  19.0360113   8.1321673  64.9168903
  19.4670113   8.0031673  64.1698903  18.8310113   8.9801673  64.8908903
  19.0690113   8.2381673  64.8028903  34.4360113  14.1231673  70.0638903
  33.7650113  14.6371673  70.2818903  34.4990113  14.2231673  69.1998903
  34.3460113  14.2141673  69.9688903  23.1200113  11.6481673  63.1988903
  23.2460113  12.4911673  63.3858903  23.7880113  11.2491673  63.5948903
  23.2380113  11.7141673  63.2848903  21.2500113   5.1311673  73.0608903
  20.7140113   4.6251673  73.5288903  21.2700113   4.7411673  72.2808903
  21.1730113   4.9981673  73.0148903  21.7350113   4.5281673  58.2008903
  21.6070113   4.0801673  58.9388903  21.1530113   4.1861673  57.6488903
  21.6300113   4.4111673  58.2288903  21.9020113   6.3581673  64.7998903
  21.1210113   6.2991673  64.4168903  21.9740113   5.6061673  65.2368903
  21.7970113   6.2391673  64.8078903  22.3320113   6.0951673  68.2678903
  22.3570113   5.4201673  67.7168903  21.6860113   6.5911673  67.9558903
  22.2410113   6.0681673  68.1408903  32.2270113   3.8081673  66.6638903
  31.5650113   4.1361673  67.1268903  32.4140113   4.4421673  66.0948903
  32.1570113   3.9501673  66.6478903  26.4320113  14.8721673  67.6598903
  26.1550113  14.2311673  67.1368903  26.2240113  15.5981673  67.2218903
  26.3610113  14.8851673  67.5178903  30.4200113   1.7771673  60.1748903
  30.9100113   2.4941673  60.0978903  29.6300113   2.0381673  59.9118903
  30.3760113   1.9211673  60.1248903  20.1310113   7.4501673  73.8268903
  20.0940113   7.9511673  73.1128903  20.4620113   6.6981673  73.5318903
  20.1740113   7.4121673  73.6778903  31.7340113   9.6551673  72.0848903
  32.2180113  10.3731673  72.1828903  32.1280113   9.2281673  71.4338903
  31.8640113   9.6981673  72.0028903  26.0300113  12.5001673  73.2618903
  26.3840113  12.3221673  74.0388903  25.5940113  11.7711673  73.0628903
  26.0180113  12.3661673  73.3478903  27.0020113   3.2471673  65.8998903
  27.4820113   3.9461673  66.1078903  27.3750113   2.6001673  66.3508903
  27.1280113   3.2551673  65.9968903  29.1910113   6.4161673  58.1738903
  29.1830113   7.1381673  57.6838903  28.5520113   6.5511673  58.7508903
  29.0960113   6.5431673  58.1868903  34.1630113  10.2861673  62.1548903
  34.5190113   9.9361673  62.8698903  34.1550113   9.6251673  61.5848903
  34.2150113  10.1361673  62.1758903  30.2080113  13.3521673  65.9988903
  29.6050113  13.0561673  65.4418903  30.7530113  13.8041673  65.4898903
  30.1990113  13.3751673  65.8408903  30.2210113  10.2031673  65.3988903
  29.4240113  10.4271673  65.6728903  30.4790113   9.6091673  65.9838903
  30.1410113  10.1481673  65.5258903  24.1130113  15.0151673  59.8468903
  23.9660113  14.2391673  60.2178903  24.8020113  14.8681673  59.3318903
  24.1930113  14.8781673  59.8258903  26.4050113  14.5311673  58.2488903
  27.0270113  14.6941673  58.8388903  26.4410113  15.2221673  57.7168903
  26.5020113  14.6571673  58.2578903  33.4810113   8.2011673  70.2448903
  33.5360113   8.3261673  69.3828903  34.2340113   8.5211673  70.5468903
  33.6000113   8.2661673  70.1618903  29.6720113  13.5501673  74.5218903
  29.8360113  13.8331673  75.3308903  29.9350113  14.2111673  74.0168903
  29.7350113  13.6901673  74.5668903  20.9060113   7.0651673  59.0778903
  21.2300113   6.2861673  58.8558903  21.5520113   7.4331673  59.5328903
  21.0490113   7.0041673  59.1118903  29.2120113   8.0071673  69.8448903
  29.0570113   8.6171673  70.4488903  29.7460113   7.4491673  70.2508903
  29.2680113   8.0151673  69.9938903  27.5960113   6.4071673  60.5028903
  27.6550113   7.0571673  61.0818903  27.4070113   5.7111673  60.9938903
  27.5770113   6.4001673  60.6608903  32.8220113  10.7361673  66.3718903
  32.3430113  11.0341673  65.7058903  32.4660113   9.9601673  66.5498903
  32.6990113  10.6651673  66.2998903  26.8190113   8.4541673  64.9338903
  25.9720113   8.2601673  65.0148903  27.1430113   8.2891673  65.7268903
  26.7410113   8.4011673  65.0628903  23.5710113  15.1841673  55.8198903
  24.0100113  14.4871673  56.1078903  23.7780113  15.8081673  56.3928903
  23.6670113  15.1731673  55.9468903  20.6670113   8.1471673  67.2498903
  21.3890113   8.6351673  67.2128903  20.3970113   8.1171673  66.4208903
  20.7340113   8.2151673  67.1218903  23.8970113   3.3181673  63.9848903
  24.7430113   3.1281673  64.0828903  23.5270113   2.5411673  63.8468903
  23.9670113   3.1751673  63.9788903  36.5140113  14.9021673  58.3118903
  37.2080113  14.4351673  58.0638903  35.9750113  14.3041673  58.6488903
  36.5370113  14.7441673  58.3248903  18.7180113   4.6561673  60.6398903
  19.2070113   4.3641673  61.3008903  18.8470113   4.0631673  60.0128903
  18.8090113   4.5251673  60.6448903  33.7530113   7.6781673  67.4908903
  33.7460113   6.9021673  67.8888903  32.9120113   7.9121673  67.4838903
  33.6280113   7.5981673  67.5488903  23.2430113   6.0901673  56.1258903
  22.6330113   5.6851673  56.5998903  22.8570113   6.2081673  55.3528903
  23.0960113   6.0471673  56.0818903  20.0620113   9.1991673  71.5278903
  19.6410113   8.6811673  70.9668903  19.7100113   9.9851673  71.3848903
  19.9480113   9.2391673  71.4238903  35.0090113   7.7491673  64.9278903
  34.7230113   8.1501673  65.6478903  35.8690113   7.6871673  65.0548903
  35.0940113   7.7991673  65.0528903  24.6980113   4.5511673  58.8358903
  24.9700113   5.3771673  58.9028903  23.8350113   4.6261673  58.7398903
  24.6110113   4.6841673  58.8308903  36.1400113  13.3821673  65.4568903
  36.4300113  13.6391673  64.6758903  36.8350113  13.4781673  65.9758903
  36.2860113  13.4341673  65.4178903  31.1630113   5.2421673  73.5438903
  31.2360113   5.3461673  74.4068903  30.5290113   5.8001673  73.3228903
  31.0800113   5.3401673  73.6388903  33.4310113   5.5611673  71.9088903
  33.7500113   6.3471673  72.1118903  33.0610113   5.2911673  72.6518903
  33.4240113   5.6371673  72.0488903  32.7450113  11.9851673  57.4388903
  33.0790113  11.1791673  57.4738903  31.9900113  11.9131673  57.8688903
  32.6830113  11.8551673  57.5078903  33.2270113   3.8191673  63.0978903
  32.4820113   3.4961673  63.4158903  33.2290113   4.6451673  63.3778903
  33.1170113   3.8931673  63.1858903  36.1290113   6.1031673  74.6438903
  36.0770113   5.7621673  73.8428903  36.8660113   6.5701673  74.6218903
  36.2300113   6.1221673  74.5218903  35.6670113   9.7791673  70.8498903
  36.2950113   9.2301673  70.5938903  35.6060113  10.3441673  70.1878903
  35.7510113   9.7821673  70.7138903  30.1190113   9.8601673  56.8418903
  30.8030113   9.3461673  56.6728903  29.7020113   9.9061673  56.0768903
  30.1580113   9.7911673  56.7038903  24.8010113  11.0101673  68.1458903
  24.5030113  11.6021673  68.7128903  24.8560113  11.4521673  67.3968903
  24.7650113  11.1631673  68.1188903  22.7800113   9.9601673  71.5438903
  21.9740113   9.6701673  71.7108903  22.6910113  10.8281673  71.5498903
  22.6480113  10.0451673  71.5688903  27.3170113   7.4331673  67.6368903
  27.7930113   7.8071673  68.2648903  26.4940113   7.5671673  67.8958903
  27.2660113   7.5081673  67.7678903  24.0270113   3.0361673  70.3778903
  24.1880113   2.2921673  70.8048903  23.9820113   2.7871673  69.5428903
  24.0440113   2.8891673  70.3178903  26.5810113  14.8261673  62.8648903
  27.1270113  15.5051673  62.9188903  26.2310113  14.9081673  62.0698903
  26.6100113  14.9391673  62.7548903  24.7640113  13.0541673  66.2538903
  24.1400113  13.6361673  66.0718903  25.0120113  12.7681673  65.4678903
  24.7080113  13.0981673  66.1108903  29.0730113   9.6881673  73.2428903
  29.8300113   9.9741673  72.9168903  28.5260113   9.7401673  72.5648903
  29.1040113   9.7381673  73.0938903  32.9820113  12.2381673  71.7468903
  33.3280113  12.5081673  72.5008903  33.2760113  12.8201673  71.1668903
  33.0770113  12.3641673  71.7728903  34.8450113   4.3841673  57.0858903
  35.2230113   5.0611673  56.6858903  34.0030113   4.6081673  57.1168903
  34.7760113   4.5171673  57.0308903  26.3580113   7.8301673  56.1688903
  25.5530113   7.6531673  55.8838903  26.3250113   8.6811673  56.3608903
  26.2340113   7.9291673  56.1558903  22.2880113   3.8971673  66.3188903
  22.7280113   3.7941673  65.5728903  22.8330113   3.5841673  66.9238903
  22.4330113   3.8361673  66.2978903  30.3040113   2.9991673  71.9108903
  29.6560113   3.4691673  72.2588903  30.8690113   2.9101673  72.5698903
  30.2920113   3.0551673  72.0598903  29.9920113   4.5361673  68.2088903
  30.2940113   4.9561673  68.9118903  30.0280113   3.6961673  68.4408903
  30.0420113   4.4741673  68.3468903  27.4170113  14.7031673  72.1338903
  27.8950113  14.1031673  71.7178903  27.0660113  14.2601673  72.7988903
  27.4360113  14.5491673  72.1708903  32.5400113   3.9831673  60.4608903
  32.7470113   3.7821673  61.2848903  33.2960113   4.2511673  60.1188903
  32.6820113   3.9931673  60.5318903  34.0050113   8.0101673  60.3148903
  34.4810113   7.2811673  60.2668903  33.1840113   7.7241673  60.2388903
  33.9540113   7.8601673  60.2958903  27.4760113   9.9221673  71.1538903
  26.6810113   9.8581673  71.5048903  27.5470113  10.7691673  70.9588903
  27.3690113  10.0371673  71.1768903  23.3060113  16.1291673  66.4708903
  23.3170113  16.1881673  67.3408903  22.8810113  15.3821673  66.3208903
  23.2450113  16.0271673  66.5768903  30.2210113   9.1771673  62.6698903
  30.2970113   9.5181673  63.4688903  30.3900113   8.3301673  62.7908903
  30.2570113   9.1021673  62.8058903  27.7430113   8.4511673  62.2348903
  27.4450113   8.1361673  62.9918903  28.4380113   8.9241673  62.4698903
  27.8020113   8.4741673  62.3818903  27.9650113  12.5691673  70.2618903
  28.6520113  12.4551673  70.7868903  28.0990113  13.3601673  69.9178903
  28.0860113  12.6691673  70.2888903  36.1410113   5.1781673  72.0728903
  35.2860113   5.0561673  72.1988903  36.2940113   4.7831673  71.3098903
  36.0370113   5.1011673  71.9788903  30.6540113   5.8431673  70.6488903
  30.3990113   5.1241673  71.0708903  31.4750113   5.9591673  70.9188903
  30.7380113   5.7541673  70.7508903  20.0700113  15.6271673  71.9128903
  19.4160113  15.0581673  72.0108903  19.6950113  16.4001673  72.0638903
  19.9180113  15.6571673  71.9498903  28.5880113   7.0331673  73.8358903
  28.9110113   7.7191673  73.4038903  27.8840113   7.3561673  74.2378903
  28.5310113   7.1821673  73.8308903  31.6720113  15.4071673  64.7648903
  31.2210113  16.0501673  65.1438903  32.3800113  15.3281673  65.2698903
  31.7100113  15.4901673  64.8958903  28.3730113  10.4971673  67.6948903
  27.6790113  10.8991673  68.0378903  29.0500113  10.9301673  68.0338903
  28.3700113  10.6201673  67.7958903  33.7500113  13.0901673  74.2748903
  34.5260113  12.7001673  74.3578903  33.2810113  12.7541673  74.9298903
  33.7950113  12.9831673  74.3838903  21.4410113   4.0351673  70.0418903
  21.8160113   4.6541673  69.5548903  22.1150113   3.5611673  70.3268903
  21.5960113   4.0571673  70.0118903  19.2160113   2.4831673  69.3168903
  19.2930113   2.3141673  68.4638903  19.9620113   2.8891673  69.5138903
  19.3370113   2.5181673  69.2198903  34.7750113   5.1231673  59.7568903
  34.8780113   5.0651673  58.8928903  35.5160113   4.7911673  60.0748903
  34.9000113   5.0661673  59.6758903  28.6950113  12.0881673  60.8638903
  28.4900113  12.9211673  60.7048903  27.9200113  11.7061673  60.9858903
  28.5500113  12.1551673  60.8588903  33.8770113   5.2691673  69.1128903
  33.8750113   4.4061673  69.2368903  33.9440113   5.5931673  69.9198903
  33.8870113   5.1891673  69.2498903  18.6130113   7.7091673  69.5408903
  18.9330113   7.9281673  68.7598903  18.5130113   6.8441673  69.4858903
  18.6450113   7.6141673  69.4178903  20.0690113   3.6451673  56.1588903
  19.3970113   3.6591673  56.7148903  20.1640113   2.7971673  55.9748903
  19.9840113   3.5221673  56.2138903  24.0570113  12.3501673  57.2728903
  24.4980113  12.4301673  58.0208903  23.2520113  12.1341673  57.5308903
  24.0030113  12.3301673  57.4218903  23.3760113   7.0011673  70.9258903
  22.9800113   7.7751673  71.0008903  22.9700113   6.6281673  70.2498903
  23.2580113   7.0601673  70.8368903  32.6520113   6.0551673  65.0398903
  33.3180113   6.5961673  65.1998903  32.3070113   6.3661673  64.3008903
  32.6990113   6.1811673  64.9548903  32.9650113  14.1211673  60.8468903
  32.7910113  13.4671673  61.3968903  33.6780113  13.8501673  60.4238903
  33.0450113  13.9841673  60.8658903  21.3860113  11.4201673  57.8738903
  21.1420113  11.1131673  58.6538903  21.3530113  10.7171673  57.3578903
  21.3450113  11.2711673  57.9128903  24.2050113   9.6651673  56.6168903
  23.3870113   9.3971673  56.7568903  24.1770113  10.5171673  56.8018903
  24.0800113   9.7521673  56.6648903  30.6400113  11.5741673  68.5378903
  30.8460113  11.8751673  69.3298903  30.5790113  12.2961673  68.0528903
  30.6610113  11.7251673  68.5828903  30.1740113  15.7881673  72.7838903
  29.4210113  15.7701673  72.3428903  30.3420113  16.6401673  72.8678903
  30.0880113  15.9111673  72.7308903  25.4110113   5.0551673  71.9538903
  25.0890113   4.4791673  71.3838903  25.0520113   5.8101673  71.7078903
  25.3110113   5.0811673  71.8338903  35.4520113  10.2131673  67.9958903
  35.4200113   9.3511673  67.8608903  34.7590113  10.5151673  67.5618903
  35.3450113  10.1301673  67.9118903  23.8460113  15.4111673  72.2018903
  23.8870113  15.5371673  73.0648903  24.4970113  14.8511673  72.0458903
  23.9480113  15.3471673  72.3068903  33.5570113  13.4731673  66.7928903
  34.0840113  13.3901673  66.1018903  33.1660113  12.6951673  66.8468903
  33.5770113  13.3461673  66.6988903  21.4390113  13.7941673  73.5618903
  22.0340113  14.2251673  74.0338903  21.0750113  14.4181673  73.0728903
  21.4730113  13.9501673  73.5588903  29.4300113   4.7251673  63.4938903
  29.9810113   4.1181673  63.7938903  29.0050113   4.9881673  64.2088903
  29.4490113   4.6741673  63.6428903  19.6780113   3.3751673  62.9798903
  19.3100113   3.6771673  63.7108903  20.2120113   2.7461673  63.2638903
  19.7020113   3.3271673  63.1298903  19.3660113  11.7831673  70.4908903
  18.7920113  12.1991673  70.9998903  20.0990113  12.2481673  70.5858903
  19.3900113  11.9131673  70.5798903  31.4000113   6.5561673  60.0558903
  31.4680113   5.7061673  60.2368903  30.5770113   6.6421673  59.7778903
  31.2880113   6.4431673  60.0418903  21.1520113  15.0501673  59.2658903
  21.0070113  15.2061673  58.4198903  22.0180113  15.1291673  59.3438903
  21.2590113  15.0851673  59.1528903  25.3190113   7.4471673  58.9938903
  25.4190113   7.5861673  58.1388903  26.1370113   7.3871673  59.2898903
  25.4540113   7.4581673  58.9108903  34.4790113  15.5111673  56.4738903
  35.1160113  15.3771673  57.0548903  34.1380113  14.7171673  56.3568903
  34.5230113  15.3741673  56.5418903  34.6740113   7.9291673  73.2068903
  35.3080113   7.7591673  73.7808903  35.0910113   8.3321673  72.5548903
  34.8290113   7.9641673  73.1958903  30.5540113  11.7761673  58.7958903
  30.3030113  11.6481673  59.6218903  30.2370113  11.0811673  58.3748903
  30.4700113  11.6551673  58.8558903  35.2990113   2.4931673  73.9448903
  35.1030113   3.1371673  74.4998903  34.5770113   2.0031673  73.9368903
  35.1640113   2.5161673  74.0258903  35.1980113   3.4341673  66.9158903
  34.3650113   3.6841673  66.8438903  35.1420113   2.5941673  67.1448903
  35.0670113   3.3471673  66.9388903  32.0850113   8.0401673  74.5618903
  32.9560113   8.0041673  74.5258903  31.8660113   8.4601673  73.8298903
  32.1820113   8.0961673  74.4488903  21.8390113  13.8651673  65.7428903
  21.7600113  13.0551673  65.4268903  21.3950113  14.3521673  65.1708903
  21.7620113  13.8171673  65.6118903  27.4400113   9.9841673  58.2258903
  28.1570113   9.6371673  57.8698903  27.4060113  10.7841673  57.8778903
  27.5410113  10.0511673  58.1218903  19.4110113  16.1091673  69.3238903
  19.9040113  16.0531673  70.0418903  19.5990113  15.3761673  68.8888903
  19.5120113  15.9921673  69.3658903  28.6580113   5.5411673  47.1356493
  28.1340113   6.1371673  47.4986493  29.0550113   5.1731673  47.8196493
  28.6390113   5.5751673  47.2906493  18.5270113   9.6811673  42.5916493
  18.0860113   9.7991673  43.3346493  18.2440113   8.9061673  42.3066493
  18.4200113   9.5841673  42.6596493  34.8020113  12.9821673  40.1066493
  35.5030113  12.4631673  40.1026493  34.2150113  12.5371673  39.6376493
  34.8190113  12.8391673  40.0366493  18.2700113   3.4731673  39.0986493
  17.4920113   3.6351673  38.7386493  18.3090113   2.6021673  39.1206493
  18.1610113   3.3681673  39.0486493  21.4090113   8.7361673  37.7706493
  21.0170113   8.3651673  37.0846493  21.3290113   8.1381673  38.3996493
  21.3390113   8.5931673  37.7616493  31.3290113   6.6081673  43.8116493
  31.4090113   6.6121673  42.9426493  30.7450113   5.9761673  43.9606493
  31.2540113   6.5151673  43.7056493  21.0360113  10.3771673  41.6706493
  21.6440113  10.2071673  42.2736493  20.2850113  10.2371673  42.0916493
  21.0150113  10.3311673  41.8216493  19.9270113  13.4681673  37.7476493
  20.3940113  13.5521673  37.0156493  20.3820113  12.8901673  38.2166493
  20.0630113  13.3951673  37.7086493  18.4670113  12.4161673  48.8466493
  18.5960113  12.1361673  49.6626493  17.8570113  11.8751673  48.5376493
  18.3960113  12.2951673  48.9216493  25.0410113   9.9411673  53.9136493
  24.8050113   9.9381673  54.7536493  24.2930113   9.7931673  53.4896493
  24.8950113   9.9181673  53.9746493  19.9130113   6.9371673  43.0486493
  19.4510113   6.5451673  42.4216493  20.6130113   6.4241673  43.1406493
  19.9480113   6.8041673  42.9696493  25.0230113  13.1331673  51.1766493
  25.1610113  13.8931673  50.7696493  25.8140113  12.7681673  51.2036493
  25.1600113  13.1921673  51.1206493  21.9140113   5.0371673  43.0716493
  22.7310113   4.8501673  43.3146493  21.4370113   4.4231673  43.4676493
  21.9640113   4.9191673  43.1666493  26.1180113  11.0181673  45.6816493
  26.4660113  10.2191673  45.7116493  26.7830113  11.5221673  45.4266493
  26.2680113  10.9741673  45.6486493  26.1750113  10.4671673  41.8926493
  26.5060113   9.8231673  42.3786493  26.4150113  10.2561673  41.0816493
  26.2590113  10.3411673  41.8446493  28.1430113   4.5981673  53.2316493
  27.2950113   4.4991673  53.0536493  28.1720113   5.3431673  53.6856493
  28.0220113   4.6941673  53.2726493  18.3690113   4.6981673  46.0616493
  18.1130113   5.5291673  45.9866493  17.7050113   4.3151673  46.4786493
  18.2330113   4.7641673  46.1126493  18.2790113  14.4081673  43.9616493
  17.6870113  14.9661673  43.6486493  18.7050113  14.1391673  43.2496493
  18.2550113  14.4501673  43.8106493  24.1190113  12.2521673  41.4416493
  23.5400113  11.9771673  42.0336493  24.7430113  11.6431673  41.4666493
  24.1260113  12.1221673  41.5326493  30.2620113  14.5401673  38.9636493
  30.9890113  15.0121673  39.0656493  30.4910113  13.7461673  39.2436493
  30.4040113  14.4931673  39.0206493  28.4300113  14.9321673  40.9536493
  28.6440113  15.4591673  41.6156493  29.1970113  14.7581673  40.5746493
  28.5750113  14.9841673  40.9956493  19.8240113  13.0781673  41.8926493
  20.4800113  12.5031673  41.9076493  20.2130113  13.8271673  41.6716493
  19.9790113  13.1031673  41.8626493  30.8690113  14.9421673  49.2586493
  31.6130113  15.3981673  49.2486493  30.7480113  14.7281673  48.4216493
  30.9610113  14.9781673  49.1336493  20.6420113  11.5651673  45.3926493
  21.0650113  11.2091673  44.7186493  20.9660113  11.1431673  46.0846493
  20.7520113  11.4501673  45.3956493  23.8730113  14.4171673  44.6886493
  24.7170113  14.5211673  44.4936493  23.5760113  15.2351673  44.7566493
  23.9540113  14.5531673  44.6696493  27.6800113   3.8141673  42.7756493
  27.9670113   3.5821673  41.9856493  28.4120113   3.8931673  43.2446493
  27.8300113   3.7911673  42.7286493  28.4020113   4.1531673  37.8966493
  28.6830113   4.9411673  38.1456493  27.6260113   4.3181673  37.5336493
  28.3290113   4.2941673  37.8796493  32.4430113  16.1271673  39.3636493
  33.1080113  15.9791673  38.8186493  32.8030113  16.0441673  40.1536493
  32.5950113  16.0931673  39.3996493  22.8710113  15.6361673  50.4286493
  23.1630113  15.5691673  51.2486493  22.2450113  15.0311673  50.3836493
  22.8220113  15.5371673  50.5436493  17.7850113   1.7931673  52.4206493
  17.7810113   2.3801673  53.0666493  18.3790113   2.1051673  51.8636493
  17.8720113   1.9261673  52.4336493  30.1230113  12.1271673  52.9626493
  30.0890113  12.5091673  53.7466493  30.9770113  12.0851673  52.7916493
  30.2440113  12.1771673  53.0536493  27.2610113  12.3241673  37.7126493
  27.0800113  12.8691673  38.3696493  28.0270113  12.6141673  37.4116493
  27.3470113  12.4481673  37.7656493  20.8640113  13.7981673  49.5506493
  20.1660113  13.2901673  49.6766493  21.1240113  13.5931673  48.7426493
  20.7990113  13.6931673  49.4496493  28.0260113   2.5961673  40.0806493
  27.5180113   1.9341673  39.8266493  28.0780113   3.1001673  39.3706493
  27.9590113   2.5731673  39.9386493  28.5750113  15.2911673  50.4606493
  29.3430113  15.2111673  50.0546493  27.9920113  15.1701673  49.8226493
  28.6020113  15.2611673  50.3066493  34.8520113  15.8941673  43.3616493
  34.3970113  16.6111673  43.5626493  34.2380113  15.3231673  43.1196493
  34.6940113  15.9161673  43.3556493  26.6240113   1.9041673  44.4936493
  26.6980113   2.4721673  43.8356493  26.7450113   2.3961673  45.2036493
  26.6520113   2.0611673  44.5016493  31.8490113  11.7391673  42.9056493
  32.5500113  11.2571673  43.0946493  31.1890113  11.1701673  42.9506493
  31.8550113  11.5841673  42.9396493  22.2250113  12.6491673  52.1176493
  23.0660113  12.7121673  51.8956493  22.1880113  13.0461673  52.8936493
  22.3440113  12.7171673  52.1996493  24.1880113   8.1601673  46.8666493
  24.3600113   7.9501673  47.6956493  23.5330113   7.6261673  46.6506493
  24.1170113   8.0501673  46.9576493  24.9380113   8.0981673  49.4566493
  24.9910113   8.9451673  49.6586493  24.6530113   7.7281673  50.1936493
  24.9040113   8.1681673  49.5946493  31.1150113   8.7931673  48.5866493
  30.6010113   8.3811673  49.1576493  30.9890113   9.6371673  48.7676493
  31.0210113   8.8571673  48.6976493  17.7590113  12.4691673  55.6676493
  18.5150113  12.8181673  55.9256493  17.9360113  11.6161673  55.6106493
  17.8970113  12.3941673  55.6976493  34.1360113   2.2541673  51.5256493
  34.9080113   2.0291673  51.8626493  33.6610113   2.4711673  52.2256493
  34.1800113   2.2531673  51.6786493  34.3680113   9.2321673  38.7136493
  34.4870113   8.9451673  39.5286493  35.1750113   9.2531673  38.3836493
  34.5040113   9.1931673  38.7856493  21.5040113   8.9641673  44.0446493
  22.3550113   8.8841673  43.8716493  21.1470113   8.2821673  43.6326493
  21.5770113   8.8511673  43.9576493  20.2710113  15.6891673  45.2816493
  19.5980113  15.1911673  45.0366493  20.6740113  15.8741673  44.5306493
  20.2310113  15.6431673  45.1346493  19.8210113   2.6391673  47.5776493
  20.6640113   2.8591673  47.5346493  19.4320113   3.2121673  47.0466493
  19.8880113   2.7561673  47.4926493  36.6020113  13.7411673  52.9676493
  35.9200113  14.0511673  52.5206493  36.2330113  13.2831673  53.6126493
  36.4460113  13.7191673  52.9966493  32.2630113   5.7691673  38.2986493
  32.0430113   6.5001673  37.8766493  31.8150113   5.8201673  39.0456493
  32.1640113   5.8841673  38.3466493  23.8720113   8.9711673  42.2796493
  24.5850113   9.4661673  42.3696493  24.0940113   8.4041673  41.6536493
  24.0100113   8.9601673  42.2006493  18.0280113  10.6141673  45.5996493
  17.3610113  11.1021673  45.8756493  18.7080113  11.1591673  45.6286493
  18.0300113  10.7661673  45.6446493  25.6750113   4.3241673  55.6956493
  25.1910113   4.9011673  56.1376493  25.6470113   4.6191673  54.8746493
  25.5990113   4.4531673  55.6396493  36.7730113   5.0081673  50.3076493
  36.9880113   4.2081673  50.0316493  35.9230113   5.0681673  50.1186493
  36.6790113   4.8991673  50.2386493  18.0940113   7.2981673  40.7026493
  17.9090113   6.4591673  40.8546493  18.7530113   7.2621673  40.1326493
  18.1640113   7.1691673  40.6406493  28.3950113  12.6741673  44.6066493
  27.8720113  13.3081673  44.3136493  28.7050113  12.3101673  43.8776493
  28.3630113  12.7141673  44.4556493  18.2660113  11.4621673  40.2776493
  18.8180113  12.0311673  40.6416493  18.0340113  10.9471673  40.9426493
  18.3130113  11.4701673  40.4296493  22.4700113  10.4621673  47.3666493
  22.9370113  10.7511673  48.0446493  23.0420113   9.9841673  46.9126493
  22.6240113  10.4341673  47.3996493  18.0960113   9.9111673  37.9056493
  18.8520113   9.4791673  37.9636493  18.1110113  10.4431673  38.5966493
  18.2100113   9.9261673  38.0166493  19.0360113   8.1321673  45.9106493
  19.4670113   8.0031673  45.1636493  18.8310113   8.9801673  45.8846493
  19.0690113   8.2381673  45.7966493  34.4360113  14.1231673  51.0576493
  33.7650113  14.6371673  51.2756493  34.4990113  14.2231673  50.1936493
  34.3460113  14.2141673  50.9626493  23.1200113  11.6481673  44.1926493
  23.2460113  12.4911673  44.3796493  23.7880113  11.2491673  44.5886493
  23.2380113  11.7141673  44.2786493  21.2500113   5.1311673  54.0546493
  20.7140113   4.6251673  54.5226493  21.2700113   4.7411673  53.2746493
  21.1730113   4.9981673  54.0086493  21.7350113   4.5281673  39.1946493
  21.6070113   4.0801673  39.9326493  21.1530113   4.1861673  38.6426493
  21.6300113   4.4111673  39.2226493  21.9020113   6.3581673  45.7936493
  21.1210113   6.2991673  45.4106493  21.9740113   5.6061673  46.2306493
  21.7970113   6.2391673  45.8016493  22.3320113   6.0951673  49.2616493
  22.3570113   5.4201673  48.7106493  21.6860113   6.5911673  48.9496493
  22.2410113   6.0681673  49.1346493  32.2270113   3.8081673  47.6576493
  31.5650113   4.1361673  48.1206493  32.4140113   4.4421673  47.0886493
  32.1570113   3.9501673  47.6416493  26.4320113  14.8721673  48.6536493
  26.1550113  14.2311673  48.1306493  26.2240113  15.5981673  48.2156493
  26.3610113  14.8851673  48.5116493  30.4200113   1.7771673  41.1686493
  30.9100113   2.4941673  41.0916493  29.6300113   2.0381673  40.9056493
  30.3760113   1.9211673  41.1186493  20.1310113   7.4501673  54.8206493
  20.0940113   7.9511673  54.1066493  20.4620113   6.6981673  54.5256493
  20.1740113   7.4121673  54.6716493  31.7340113   9.6551673  53.0786493
  32.2180113  10.3731673  53.1766493  32.1280113   9.2281673  52.4276493
  31.8640113   9.6981673  52.9966493  26.0300113  12.5001673  54.2556493
  26.3840113  12.3221673  55.0326493  25.5940113  11.7711673  54.0566493
  26.0180113  12.3661673  54.3416493  27.0020113   3.2471673  46.8936493
  27.4820113   3.9461673  47.1016493  27.3750113   2.6001673  47.3446493
  27.1280113   3.2551673  46.9906493  29.1910113   6.4161673  39.1676493
  29.1830113   7.1381673  38.6776493  28.5520113   6.5511673  39.7446493
  29.0960113   6.5431673  39.1806493  34.1630113  10.2861673  43.1486493
  34.5190113   9.9361673  43.8636493  34.1550113   9.6251673  42.5786493
  34.2150113  10.1361673  43.1696493  30.2080113  13.3521673  46.9926493
  29.6050113  13.0561673  46.4356493  30.7530113  13.8041673  46.4836493
  30.1990113  13.3751673  46.8346493  30.2210113  10.2031673  46.3926493
  29.4240113  10.4271673  46.6666493  30.4790113   9.6091673  46.9776493
  30.1410113  10.1481673  46.5196493  24.1130113  15.0151673  40.8406493
  23.9660113  14.2391673  41.2116493  24.8020113  14.8681673  40.3256493
  24.1930113  14.8781673  40.8196493  26.4050113  14.5311673  39.2426493
  27.0270113  14.6941673  39.8326493  26.4410113  15.2221673  38.7106493
  26.5020113  14.6571673  39.2516493  33.4810113   8.2011673  51.2386493
  33.5360113   8.3261673  50.3766493  34.2340113   8.5211673  51.5406493
  33.6000113   8.2661673  51.1556493  29.6720113  13.5501673  55.5156493
  29.8360113  13.8331673  56.3246493  29.9350113  14.2111673  55.0106493
  29.7350113  13.6901673  55.5606493  20.9060113   7.0651673  40.0716493
  21.2300113   6.2861673  39.8496493  21.5520113   7.4331673  40.5266493
  21.0490113   7.0041673  40.1056493  29.2120113   8.0071673  50.8386493
  29.0570113   8.6171673  51.4426493  29.7460113   7.4491673  51.2446493
  29.2680113   8.0151673  50.9876493  27.5960113   6.4071673  41.4966493
  27.6550113   7.0571673  42.0756493  27.4070113   5.7111673  41.9876493
  27.5770113   6.4001673  41.6546493  32.8220113  10.7361673  47.3656493
  32.3430113  11.0341673  46.6996493  32.4660113   9.9601673  47.5436493
  32.6990113  10.6651673  47.2936493  26.8190113   8.4541673  45.9276493
  25.9720113   8.2601673  46.0086493  27.1430113   8.2891673  46.7206493
  26.7410113   8.4011673  46.0566493  23.5710113  15.1841673  36.8136493
  24.0100113  14.4871673  37.1016493  23.7780113  15.8081673  37.3866493
  23.6670113  15.1731673  36.9406493  20.6670113   8.1471673  48.2436493
  21.3890113   8.6351673  48.2066493  20.3970113   8.1171673  47.4146493
  20.7340113   8.2151673  48.1156493  23.8970113   3.3181673  44.9786493
  24.7430113   3.1281673  45.0766493  23.5270113   2.5411673  44.8406493
  23.9670113   3.1751673  44.9726493  36.5140113  14.9021673  39.3056493
  37.2080113  14.4351673  39.0576493  35.9750113  14.3041673  39.6426493
  36.5370113  14.7441673  39.3186493  18.7180113   4.6561673  41.6336493
  19.2070113   4.3641673  42.2946493  18.8470113   4.0631673  41.0066493
  18.8090113   4.5251673  41.6386493  33.7530113   7.6781673  48.4846493
  33.7460113   6.9021673  48.8826493  32.9120113   7.9121673  48.4776493
  33.6280113   7.5981673  48.5426493  23.2430113   6.0901673  37.1196493
  22.6330113   5.6851673  37.5936493  22.8570113   6.2081673  36.3466493
  23.0960113   6.0471673  37.0756493  20.0620113   9.1991673  52.5216493
  19.6410113   8.6811673  51.9606493  19.7100113   9.9851673  52.3786493
  19.9480113   9.2391673  52.4176493  35.0090113   7.7491673  45.9216493
  34.7230113   8.1501673  46.6416493  35.8690113   7.6871673  46.0486493
  35.0940113   7.7991673  46.0466493  24.6980113   4.5511673  39.8296493
  24.9700113   5.3771673  39.8966493  23.8350113   4.6261673  39.7336493
  24.6110113   4.6841673  39.8246493  36.1400113  13.3821673  46.4506493
  36.4300113  13.6391673  45.6696493  36.8350113  13.4781673  46.9696493
  36.2860113  13.4341673  46.4116493  31.1630113   5.2421673  54.5376493
  31.2360113   5.3461673  55.4006493  30.5290113   5.8001673  54.3166493
  31.0800113   5.3401673  54.6326493  33.4310113   5.5611673  52.9026493
  33.7500113   6.3471673  53.1056493  33.0610113   5.2911673  53.6456493
  33.4240113   5.6371673  53.0426493  32.7450113  11.9851673  38.4326493
  33.0790113  11.1791673  38.4676493  31.9900113  11.9131673  38.8626493
  32.6830113  11.8551673  38.5016493  33.2270113   3.8191673  44.0916493
  32.4820113   3.4961673  44.4096493  33.2290113   4.6451673  44.3716493
  33.1170113   3.8931673  44.1796493  36.1290113   6.1031673  55.6376493
  36.0770113   5.7621673  54.8366493  36.8660113   6.5701673  55.6156493
  36.2300113   6.1221673  55.5156493  35.6670113   9.7791673  51.8436493
  36.2950113   9.2301673  51.5876493  35.6060113  10.3441673  51.1816493
  35.7510113   9.7821673  51.7076493  30.1190113   9.8601673  37.8356493
  30.8030113   9.3461673  37.6666493  29.7020113   9.9061673  37.0706493
  30.1580113   9.7911673  37.6976493  24.8010113  11.0101673  49.1396493
  24.5030113  11.6021673  49.7066493  24.8560113  11.4521673  48.3906493
  24.7650113  11.1631673  49.1126493  22.7800113   9.9601673  52.5376493
  21.9740113   9.6701673  52.7046493  22.6910113  10.8281673  52.5436493
  22.6480113  10.0451673  52.5626493  27.3170113   7.4331673  48.6306493
  27.7930113   7.8071673  49.2586493  26.4940113   7.5671673  48.8896493
  27.2660113   7.5081673  48.7616493  24.0270113   3.0361673  51.3716493
  24.1880113   2.2921673  51.7986493  23.9820113   2.7871673  50.5366493
  24.0440113   2.8891673  51.3116493  26.5810113  14.8261673  43.8586493
  27.1270113  15.5051673  43.9126493  26.2310113  14.9081673  43.0636493
  26.6100113  14.9391673  43.7486493  24.7640113  13.0541673  47.2476493
  24.1400113  13.6361673  47.0656493  25.0120113  12.7681673  46.4616493
  24.7080113  13.0981673  47.1046493  29.0730113   9.6881673  54.2366493
  29.8300113   9.9741673  53.9106493  28.5260113   9.7401673  53.5586493
  29.1040113   9.7381673  54.0876493  32.9820113  12.2381673  52.7406493
  33.3280113  12.5081673  53.4946493  33.2760113  12.8201673  52.1606493
  33.0770113  12.3641673  52.7666493  34.8450113   4.3841673  38.0796493
  35.2230113   5.0611673  37.6796493  34.0030113   4.6081673  38.1106493
  34.7760113   4.5171673  38.0246493  26.3580113   7.8301673  37.1626493
  25.5530113   7.6531673  36.8776493  26.3250113   8.6811673  37.3546493
  26.2340113   7.9291673  37.1496493  22.2880113   3.8971673  47.3126493
  22.7280113   3.7941673  46.5666493  22.8330113   3.5841673  47.9176493
  22.4330113   3.8361673  47.2916493  30.3040113   2.9991673  52.9046493
  29.6560113   3.4691673  53.2526493  30.8690113   2.9101673  53.5636493
  30.2920113   3.0551673  53.0536493  29.9920113   4.5361673  49.2026493
  30.2940113   4.9561673  49.9056493  30.0280113   3.6961673  49.4346493
  30.0420113   4.4741673  49.3406493  27.4170113  14.7031673  53.1276493
  27.8950113  14.1031673  52.7116493  27.0660113  14.2601673  53.7926493
  27.4360113  14.5491673  53.1646493  32.5400113   3.9831673  41.4546493
  32.7470113   3.7821673  42.2786493  33.2960113   4.2511673  41.1126493
  32.6820113   3.9931673  41.5256493  34.0050113   8.0101673  41.3086493
  34.4810113   7.2811673  41.2606493  33.1840113   7.7241673  41.2326493
  33.9540113   7.8601673  41.2896493  27.4760113   9.9221673  52.1476493
  26.6810113   9.8581673  52.4986493  27.5470113  10.7691673  51.9526493
  27.3690113  10.0371673  52.1706493  23.3060113  16.1291673  47.4646493
  23.3170113  16.1881673  48.3346493  22.8810113  15.3821673  47.3146493
  23.2450113  16.0271673  47.5706493  30.2210113   9.1771673  43.6636493
  30.2970113   9.5181673  44.4626493  30.3900113   8.3301673  43.7846493
  30.2570113   9.1021673  43.7996493  27.7430113   8.4511673  43.2286493
  27.4450113   8.1361673  43.9856493  28.4380113   8.9241673  43.4636493
  27.8020113   8.4741673  43.3756493  27.9650113  12.5691673  51.2556493
  28.6520113  12.4551673  51.7806493  28.0990113  13.3601673  50.9116493
  28.0860113  12.6691673  51.2826493  36.1410113   5.1781673  53.0666493
  35.2860113   5.0561673  53.1926493  36.2940113   4.7831673  52.3036493
  36.0370113   5.1011673  52.9726493  30.6540113   5.8431673  51.6426493
  30.3990113   5.1241673  52.0646493  31.4750113   5.9591673  51.9126493
  30.7380113   5.7541673  51.7446493  20.0700113  15.6271673  52.9066493
  19.4160113  15.0581673  53.0046493  19.6950113  16.4001673  53.0576493
  19.9180113  15.6571673  52.9436493  28.5880113   7.0331673  54.8296493
  28.9110113   7.7191673  54.3976493  27.8840113   7.3561673  55.2316493
  28.5310113   7.1821673  54.8246493  31.6720113  15.4071673  45.7586493
  31.2210113  16.0501673  46.1376493  32.3800113  15.3281673  46.2636493
  31.7100113  15.4901673  45.8896493  28.3730113  10.4971673  48.6886493
  27.6790113  10.8991673  49.0316493  29.0500113  10.9301673  49.0276493
  28.3700113  10.6201673  48.7896493  33.7500113  13.0901673  55.2686493
  34.5260113  12.7001673  55.3516493  33.2810113  12.7541673  55.9236493
  33.7950113  12.9831673  55.3776493  21.4410113   4.0351673  51.0356493
  21.8160113   4.6541673  50.5486493  22.1150113   3.5611673  51.3206493
  21.5960113   4.0571673  51.0056493  19.2160113   2.4831673  50.3106493
  19.2930113   2.3141673  49.4576493  19.9620113   2.8891673  50.5076493
  19.3370113   2.5181673  50.2136493  34.7750113   5.1231673  40.7506493
  34.8780113   5.0651673  39.8866493  35.5160113   4.7911673  41.0686493
  34.9000113   5.0661673  40.6696493  28.6950113  12.0881673  41.8576493
  28.4900113  12.9211673  41.6986493  27.9200113  11.7061673  41.9796493
  28.5500113  12.1551673  41.8526493  33.8770113   5.2691673  50.1066493
  33.8750113   4.4061673  50.2306493  33.9440113   5.5931673  50.9136493
  33.8870113   5.1891673  50.2436493  18.6130113   7.7091673  50.5346493
  18.9330113   7.9281673  49.7536493  18.5130113   6.8441673  50.4796493
  18.6450113   7.6141673  50.4116493  20.0690113   3.6451673  37.1526493
  19.3970113   3.6591673  37.7086493  20.1640113   2.7971673  36.9686493
  19.9840113   3.5221673  37.2076493  24.0570113  12.3501673  38.2666493
  24.4980113  12.4301673  39.0146493  23.2520113  12.1341673  38.5246493
  24.0030113  12.3301673  38.4156493  23.3760113   7.0011673  51.9196493
  22.9800113   7.7751673  51.9946493  22.9700113   6.6281673  51.2436493
  23.2580113   7.0601673  51.8306493  32.6520113   6.0551673  46.0336493
  33.3180113   6.5961673  46.1936493  32.3070113   6.3661673  45.2946493
  32.6990113   6.1811673  45.9486493  32.9650113  14.1211673  41.8406493
  32.7910113  13.4671673  42.3906493  33.6780113  13.8501673  41.4176493
  33.0450113  13.9841673  41.8596493  21.3860113  11.4201673  38.8676493
  21.1420113  11.1131673  39.6476493  21.3530113  10.7171673  38.3516493
  21.3450113  11.2711673  38.9066493  24.2050113   9.6651673  37.6106493
  23.3870113   9.3971673  37.7506493  24.1770113  10.5171673  37.7956493
  24.0800113   9.7521673  37.6586493  30.6400113  11.5741673  49.5316493
  30.8460113  11.8751673  50.3236493  30.5790113  12.2961673  49.0466493
  30.6610113  11.7251673  49.5766493  30.1740113  15.7881673  53.7776493
  29.4210113  15.7701673  53.3366493  30.3420113  16.6401673  53.8616493
  30.0880113  15.9111673  53.7246493  25.4110113   5.0551673  52.9476493
  25.0890113   4.4791673  52.3776493  25.0520113   5.8101673  52.7016493
  25.3110113   5.0811673  52.8276493  35.4520113  10.2131673  48.9896493
  35.4200113   9.3511673  48.8546493  34.7590113  10.5151673  48.5556493
  35.3450113  10.1301673  48.9056493  23.8460113  15.4111673  53.1956493
  23.8870113  15.5371673  54.0586493  24.4970113  14.8511673  53.0396493
  23.9480113  15.3471673  53.3006493  33.5570113  13.4731673  47.7866493
  34.0840113  13.3901673  47.0956493  33.1660113  12.6951673  47.8406493
  33.5770113  13.3461673  47.6926493  21.4390113  13.7941673  54.5556493
  22.0340113  14.2251673  55.0276493  21.0750113  14.4181673  54.0666493
  21.4730113  13.9501673  54.5526493  29.4300113   4.7251673  44.4876493
  29.9810113   4.1181673  44.7876493  29.0050113   4.9881673  45.2026493
  29.4490113   4.6741673  44.6366493  19.6780113   3.3751673  43.9736493
  19.3100113   3.6771673  44.7046493  20.2120113   2.7461673  44.2576493
  19.7020113   3.3271673  44.1236493  19.3660113  11.7831673  51.4846493
  18.7920113  12.1991673  51.9936493  20.0990113  12.2481673  51.5796493
  19.3900113  11.9131673  51.5736493  31.4000113   6.5561673  41.0496493
  31.4680113   5.7061673  41.2306493  30.5770113   6.6421673  40.7716493
  31.2880113   6.4431673  41.0356493  21.1520113  15.0501673  40.2596493
  21.0070113  15.2061673  39.4136493  22.0180113  15.1291673  40.3376493
  21.2590113  15.0851673  40.1466493  25.3190113   7.4471673  39.9876493
  25.4190113   7.5861673  39.1326493  26.1370113   7.3871673  40.2836493
  25.4540113   7.4581673  39.9046493  34.4790113  15.5111673  37.4676493
  35.1160113  15.3771673  38.0486493  34.1380113  14.7171673  37.3506493
  34.5230113  15.3741673  37.5356493  34.6740113   7.9291673  54.2006493
  35.3080113   7.7591673  54.7746493  35.0910113   8.3321673  53.5486493
  34.8290113   7.9641673  54.1896493  30.5540113  11.7761673  39.7896493
  30.3030113  11.6481673  40.6156493  30.2370113  11.0811673  39.3686493
  30.4700113  11.6551673  39.8496493  35.2990113   2.4931673  54.9386493
  35.1030113   3.1371673  55.4936493  34.5770113   2.0031673  54.9306493
  35.1640113   2.5161673  55.0196493  35.1980113   3.4341673  47.9096493
  34.3650113   3.6841673  47.8376493  35.1420113   2.5941673  48.1386493
  35.0670113   3.3471673  47.9326493  32.0850113   8.0401673  55.5556493
  32.9560113   8.0041673  55.5196493  31.8660113   8.4601673  54.8236493
  32.1820113   8.0961673  55.4426493  21.8390113  13.8651673  46.7366493
  21.7600113  13.0551673  46.4206493  21.3950113  14.3521673  46.1646493
  21.7620113  13.8171673  46.6056493  27.4400113   9.9841673  39.2196493
  28.1570113   9.6371673  38.8636493  27.4060113  10.7841673  38.8716493
  27.5410113  10.0511673  39.1156493  19.4110113  16.1091673  50.3176493
  19.9040113  16.0531673  51.0356493  19.5990113  15.3761673  49.8826493
  19.5120113  15.9921673  50.3596493  28.6580113   5.5411673  28.1294083
  28.1340113   6.1371673  28.4924083  29.0550113   5.1731673  28.8134083
  28.6390113   5.5751673  28.2844083  18.5270113   9.6811673  23.5854083
  18.0860113   9.7991673  24.3284083  18.2440113   8.9061673  23.3004083
  18.4200113   9.5841673  23.6534083  34.8020113  12.9821673  21.1004083
  35.5030113  12.4631673  21.0964083  34.2150113  12.5371673  20.6314083
  34.8190113  12.8391673  21.0304083  18.2700113   3.4731673  20.0924083
  17.4920113   3.6351673  19.7324083  18.3090113   2.6021673  20.1144083
  18.1610113   3.3681673  20.0424083  21.4090113   8.7361673  18.7644083
  21.0170113   8.3651673  18.0784083  21.3290113   8.1381673  19.3934083
  21.3390113   8.5931673  18.7554083  31.3290113   6.6081673  24.8054083
  31.4090113   6.6121673  23.9364083  30.7450113   5.9761673  24.9544083
  31.2540113   6.5151673  24.6994083  21.0360113  10.3771673  22.6644083
  21.6440113  10.2071673  23.2674083  20.2850113  10.2371673  23.0854083
  21.0150113  10.3311673  22.8154083  19.9270113  13.4681673  18.7414083
  20.3940113  13.5521673  18.0094083  20.3820113  12.8901673  19.2104083
  20.0630113  13.3951673  18.7024083  18.4670113  12.4161673  29.8404083
  18.5960113  12.1361673  30.6564083  17.8570113  11.8751673  29.5314083
  18.3960113  12.2951673  29.9154083  25.0410113   9.9411673  34.9074083
  24.8050113   9.9381673  35.7474083  24.2930113   9.7931673  34.4834083
  24.8950113   9.9181673  34.9684083  19.9130113   6.9371673  24.0424083
  19.4510113   6.5451673  23.4154083  20.6130113   6.4241673  24.1344083
  19.9480113   6.8041673  23.9634083  25.0230113  13.1331673  32.1704083
  25.1610113  13.8931673  31.7634083  25.8140113  12.7681673  32.1974083
  25.1600113  13.1921673  32.1144083  21.9140113   5.0371673  24.0654083
  22.7310113   4.8501673  24.3084083  21.4370113   4.4231673  24.4614083
  21.9640113   4.9191673  24.1604083  26.1180113  11.0181673  26.6754083
  26.4660113  10.2191673  26.7054083  26.7830113  11.5221673  26.4204083
  26.2680113  10.9741673  26.6424083  26.1750113  10.4671673  22.8864083
  26.5060113   9.8231673  23.3724083  26.4150113  10.2561673  22.0754083
  26.2590113  10.3411673  22.8384083  28.1430113   4.5981673  34.2254083
  27.2950113   4.4991673  34.0474083  28.1720113   5.3431673  34.6794083
  28.0220113   4.6941673  34.2664083  18.3690113   4.6981673  27.0554083
  18.1130113   5.5291673  26.9804083  17.7050113   4.3151673  27.4724083
  18.2330113   4.7641673  27.1064083  18.2790113  14.4081673  24.9554083
  17.6870113  14.9661673  24.6424083  18.7050113  14.1391673  24.2434083
  18.2550113  14.4501673  24.8044083  24.1190113  12.2521673  22.4354083
  23.5400113  11.9771673  23.0274083  24.7430113  11.6431673  22.4604083
  24.1260113  12.1221673  22.5264083  30.2620113  14.5401673  19.9574083
  30.9890113  15.0121673  20.0594083  30.4910113  13.7461673  20.2374083
  30.4040113  14.4931673  20.0144083  28.4300113  14.9321673  21.9474083
  28.6440113  15.4591673  22.6094083  29.1970113  14.7581673  21.5684083
  28.5750113  14.9841673  21.9894083  19.8240113  13.0781673  22.8864083
  20.4800113  12.5031673  22.9014083  20.2130113  13.8271673  22.6654083
  19.9790113  13.1031673  22.8564083  30.8690113  14.9421673  30.2524083
  31.6130113  15.3981673  30.2424083  30.7480113  14.7281673  29.4154083
  30.9610113  14.9781673  30.1274083  20.6420113  11.5651673  26.3864083
  21.0650113  11.2091673  25.7124083  20.9660113  11.1431673  27.0784083
  20.7520113  11.4501673  26.3894083  23.8730113  14.4171673  25.6824083
  24.7170113  14.5211673  25.4874083  23.5760113  15.2351673  25.7504083
  23.9540113  14.5531673  25.6634083  27.6800113   3.8141673  23.7694083
  27.9670113   3.5821673  22.9794083  28.4120113   3.8931673  24.2384083
  27.8300113   3.7911673  23.7224083  28.4020113   4.1531673  18.8904083
  28.6830113   4.9411673  19.1394083  27.6260113   4.3181673  18.5274083
  28.3290113   4.2941673  18.8734083  32.4430113  16.1271673  20.3574083
  33.1080113  15.9791673  19.8124083  32.8030113  16.0441673  21.1474083
  32.5950113  16.0931673  20.3934083  22.8710113  15.6361673  31.4224083
  23.1630113  15.5691673  32.2424083  22.2450113  15.0311673  31.3774083
  22.8220113  15.5371673  31.5374083  17.7850113   1.7931673  33.4144083
  17.7810113   2.3801673  34.0604083  18.3790113   2.1051673  32.8574083
  17.8720113   1.9261673  33.4274083  30.1230113  12.1271673  33.9564083
  30.0890113  12.5091673  34.7404083  30.9770113  12.0851673  33.7854083
  30.2440113  12.1771673  34.0474083  27.2610113  12.3241673  18.7064083
  27.0800113  12.8691673  19.3634083  28.0270113  12.6141673  18.4054083
  27.3470113  12.4481673  18.7594083  20.8640113  13.7981673  30.5444083
  20.1660113  13.2901673  30.6704083  21.1240113  13.5931673  29.7364083
  20.7990113  13.6931673  30.4434083  28.0260113   2.5961673  21.0744083
  27.5180113   1.9341673  20.8204083  28.0780113   3.1001673  20.3644083
  27.9590113   2.5731673  20.9324083  28.5750113  15.2911673  31.4544083
  29.3430113  15.2111673  31.0484083  27.9920113  15.1701673  30.8164083
  28.6020113  15.2611673  31.3004083  34.8520113  15.8941673  24.3554083
  34.3970113  16.6111673  24.5564083  34.2380113  15.3231673  24.1134083
  34.6940113  15.9161673  24.3494083  26.6240113   1.9041673  25.4874083
  26.6980113   2.4721673  24.8294083  26.7450113   2.3961673  26.1974083
  26.6520113   2.0611673  25.4954083  31.8490113  11.7391673  23.8994083
  32.5500113  11.2571673  24.0884083  31.1890113  11.1701673  23.9444083
  31.8550113  11.5841673  23.9334083  22.2250113  12.6491673  33.1114083
  23.0660113  12.7121673  32.8894083  22.1880113  13.0461673  33.8874083
  22.3440113  12.7171673  33.1934083  24.1880113   8.1601673  27.8604083
  24.3600113   7.9501673  28.6894083  23.5330113   7.6261673  27.6444083
  24.1170113   8.0501673  27.9514083  24.9380113   8.0981673  30.4504083
  24.9910113   8.9451673  30.6524083  24.6530113   7.7281673  31.1874083
  24.9040113   8.1681673  30.5884083  31.1150113   8.7931673  29.5804083
  30.6010113   8.3811673  30.1514083  30.9890113   9.6371673  29.7614083
  31.0210113   8.8571673  29.6914083  17.7590113  12.4691673  36.6614083
  18.5150113  12.8181673  36.9194083  17.9360113  11.6161673  36.6044083
  17.8970113  12.3941673  36.6914083  34.1360113   2.2541673  32.5194083
  34.9080113   2.0291673  32.8564083  33.6610113   2.4711673  33.2194083
  34.1800113   2.2531673  32.6724083  34.3680113   9.2321673  19.7074083
  34.4870113   8.9451673  20.5224083  35.1750113   9.2531673  19.3774083
  34.5040113   9.1931673  19.7794083  21.5040113   8.9641673  25.0384083
  22.3550113   8.8841673  24.8654083  21.1470113   8.2821673  24.6264083
  21.5770113   8.8511673  24.9514083  20.2710113  15.6891673  26.2754083
  19.5980113  15.1911673  26.0304083  20.6740113  15.8741673  25.5244083
  20.2310113  15.6431673  26.1284083  19.8210113   2.6391673  28.5714083
  20.6640113   2.8591673  28.5284083  19.4320113   3.2121673  28.0404083
  19.8880113   2.7561673  28.4864083  36.6020113  13.7411673  33.9614083
  35.9200113  14.0511673  33.5144083  36.2330113  13.2831673  34.6064083
  36.4460113  13.7191673  33.9904083  32.2630113   5.7691673  19.2924083
  32.0430113   6.5001673  18.8704083  31.8150113   5.8201673  20.0394083
  32.1640113   5.8841673  19.3404083  23.8720113   8.9711673  23.2734083
  24.5850113   9.4661673  23.3634083  24.0940113   8.4041673  22.6474083
  24.0100113   8.9601673  23.1944083  18.0280113  10.6141673  26.5934083
  17.3610113  11.1021673  26.8694083  18.7080113  11.1591673  26.6224083
  18.0300113  10.7661673  26.6384083  25.6750113   4.3241673  36.6894083
  25.1910113   4.9011673  37.1314083  25.6470113   4.6191673  35.8684083
  25.5990113   4.4531673  36.6334083  36.7730113   5.0081673  31.3014083
  36.9880113   4.2081673  31.0254083  35.9230113   5.0681673  31.1124083
  36.6790113   4.8991673  31.2324083  18.0940113   7.2981673  21.6964083
  17.9090113   6.4591673  21.8484083  18.7530113   7.2621673  21.1264083
  18.1640113   7.1691673  21.6344083  28.3950113  12.6741673  25.6004083
  27.8720113  13.3081673  25.3074083  28.7050113  12.3101673  24.8714083
  28.3630113  12.7141673  25.4494083  18.2660113  11.4621673  21.2714083
  18.8180113  12.0311673  21.6354083  18.0340113  10.9471673  21.9364083
  18.3130113  11.4701673  21.4234083  22.4700113  10.4621673  28.3604083
  22.9370113  10.7511673  29.0384083  23.0420113   9.9841673  27.9064083
  22.6240113  10.4341673  28.3934083  18.0960113   9.9111673  18.8994083
  18.8520113   9.4791673  18.9574083  18.1110113  10.4431673  19.5904083
  18.2100113   9.9261673  19.0104083  19.0360113   8.1321673  26.9044083
  19.4670113   8.0031673  26.1574083  18.8310113   8.9801673  26.8784083
  19.0690113   8.2381673  26.7904083  34.4360113  14.1231673  32.0514083
  33.7650113  14.6371673  32.2694083  34.4990113  14.2231673  31.1874083
  34.3460113  14.2141673  31.9564083  23.1200113  11.6481673  25.1864083
  23.2460113  12.4911673  25.3734083  23.7880113  11.2491673  25.5824083
  23.2380113  11.7141673  25.2724083  21.2500113   5.1311673  35.0484083
  20.7140113   4.6251673  35.5164083  21.2700113   4.7411673  34.2684083
  21.1730113   4.9981673  35.0024083  21.7350113   4.5281673  20.1884083
  21.6070113   4.0801673  20.9264083  21.1530113   4.1861673  19.6364083
  21.6300113   4.4111673  20.2164083  21.9020113   6.3581673  26.7874083
  21.1210113   6.2991673  26.4044083  21.9740113   5.6061673  27.2244083
  21.7970113   6.2391673  26.7954083  22.3320113   6.0951673  30.2554083
  22.3570113   5.4201673  29.7044083  21.6860113   6.5911673  29.9434083
  22.2410113   6.0681673  30.1284083  32.2270113   3.8081673  28.6514083
  31.5650113   4.1361673  29.1144083  32.4140113   4.4421673  28.0824083
  32.1570113   3.9501673  28.6354083  26.4320113  14.8721673  29.6474083
  26.1550113  14.2311673  29.1244083  26.2240113  15.5981673  29.2094083
  26.3610113  14.8851673  29.5054083  30.4200113   1.7771673  22.1624083
  30.9100113   2.4941673  22.0854083  29.6300113   2.0381673  21.8994083
  30.3760113   1.9211673  22.1124083  20.1310113   7.4501673  35.8144083
  20.0940113   7.9511673  35.1004083  20.4620113   6.6981673  35.5194083
  20.1740113   7.4121673  35.6654083  31.7340113   9.6551673  34.0724083
  32.2180113  10.3731673  34.1704083  32.1280113   9.2281673  33.4214083
  31.8640113   9.6981673  33.9904083  26.0300113  12.5001673  35.2494083
  26.3840113  12.3221673  36.0264083  25.5940113  11.7711673  35.0504083
  26.0180113  12.3661673  35.3354083  27.0020113   3.2471673  27.8874083
  27.4820113   3.9461673  28.0954083  27.3750113   2.6001673  28.3384083
  27.1280113   3.2551673  27.9844083  29.1910113   6.4161673  20.1614083
  29.1830113   7.1381673  19.6714083  28.5520113   6.5511673  20.7384083
  29.0960113   6.5431673  20.1744083  34.1630113  10.2861673  24.1424083
  34.5190113   9.9361673  24.8574083  34.1550113   9.6251673  23.5724083
  34.2150113  10.1361673  24.1634083  30.2080113  13.3521673  27.9864083
  29.6050113  13.0561673  27.4294083  30.7530113  13.8041673  27.4774083
  30.1990113  13.3751673  27.8284083  30.2210113  10.2031673  27.3864083
  29.4240113  10.4271673  27.6604083  30.4790113   9.6091673  27.9714083
  30.1410113  10.1481673  27.5134083  24.1130113  15.0151673  21.8344083
  23.9660113  14.2391673  22.2054083  24.8020113  14.8681673  21.3194083
  24.1930113  14.8781673  21.8134083  26.4050113  14.5311673  20.2364083
  27.0270113  14.6941673  20.8264083  26.4410113  15.2221673  19.7044083
  26.5020113  14.6571673  20.2454083  33.4810113   8.2011673  32.2324083
  33.5360113   8.3261673  31.3704083  34.2340113   8.5211673  32.5344083
  33.6000113   8.2661673  32.1494083  29.6720113  13.5501673  36.5094083
  29.8360113  13.8331673  37.3184083  29.9350113  14.2111673  36.0044083
  29.7350113  13.6901673  36.5544083  20.9060113   7.0651673  21.0654083
  21.2300113   6.2861673  20.8434083  21.5520113   7.4331673  21.5204083
  21.0490113   7.0041673  21.0994083  29.2120113   8.0071673  31.8324083
  29.0570113   8.6171673  32.4364083  29.7460113   7.4491673  32.2384083
  29.2680113   8.0151673  31.9814083  27.5960113   6.4071673  22.4904083
  27.6550113   7.0571673  23.0694083  27.4070113   5.7111673  22.9814083
  27.5770113   6.4001673  22.6484083  32.8220113  10.7361673  28.3594083
  32.3430113  11.0341673  27.6934083  32.4660113   9.9601673  28.5374083
  32.6990113  10.6651673  28.2874083  26.8190113   8.4541673  26.9214083
  25.9720113   8.2601673  27.0024083  27.1430113   8.2891673  27.7144083
  26.7410113   8.4011673  27.0504083  23.5710113  15.1841673  17.8074083
  24.0100113  14.4871673  18.0954083  23.7780113  15.8081673  18.3804083
  23.6670113  15.1731673  17.9344083  20.6670113   8.1471673  29.2374083
  21.3890113   8.6351673  29.2004083  20.3970113   8.1171673  28.4084083
  20.7340113   8.2151673  29.1094083  23.8970113   3.3181673  25.9724083
  24.7430113   3.1281673  26.0704083  23.5270113   2.5411673  25.8344083
  23.9670113   3.1751673  25.9664083  36.5140113  14.9021673  20.2994083
  37.2080113  14.4351673  20.0514083  35.9750113  14.3041673  20.6364083
  36.5370113  14.7441673  20.3124083  18.7180113   4.6561673  22.6274083
  19.2070113   4.3641673  23.2884083  18.8470113   4.0631673  22.0004083
  18.8090113   4.5251673  22.6324083  33.7530113   7.6781673  29.4784083
  33.7460113   6.9021673  29.8764083  32.9120113   7.9121673  29.4714083
  33.6280113   7.5981673  29.5364083  23.2430113   6.0901673  18.1134083
  22.6330113   5.6851673  18.5874083  22.8570113   6.2081673  17.3404083
  23.0960113   6.0471673  18.0694083  20.0620113   9.1991673  33.5154083
  19.6410113   8.6811673  32.9544083  19.7100113   9.9851673  33.3724083
  19.9480113   9.2391673  33.4114083  35.0090113   7.7491673  26.9154083
  34.7230113   8.1501673  27.6354083  35.8690113   7.6871673  27.0424083
  35.0940113   7.7991673  27.0404083  24.6980113   4.5511673  20.8234083
  24.9700113   5.3771673  20.8904083  23.8350113   4.6261673  20.7274083
  24.6110113   4.6841673  20.8184083  36.1400113  13.3821673  27.4444083
  36.4300113  13.6391673  26.6634083  36.8350113  13.4781673  27.9634083
  36.2860113  13.4341673  27.4054083  31.1630113   5.2421673  35.5314083
  31.2360113   5.3461673  36.3944083  30.5290113   5.8001673  35.3104083
  31.0800113   5.3401673  35.6264083  33.4310113   5.5611673  33.8964083
  33.7500113   6.3471673  34.0994083  33.0610113   5.2911673  34.6394083
  33.4240113   5.6371673  34.0364083  32.7450113  11.9851673  19.4264083
  33.0790113  11.1791673  19.4614083  31.9900113  11.9131673  19.8564083
  32.6830113  11.8551673  19.4954083  33.2270113   3.8191673  25.0854083
  32.4820113   3.4961673  25.4034083  33.2290113   4.6451673  25.3654083
  33.1170113   3.8931673  25.1734083  36.1290113   6.1031673  36.6314083
  36.0770113   5.7621673  35.8304083  36.8660113   6.5701673  36.6094083
  36.2300113   6.1221673  36.5094083  35.6670113   9.7791673  32.8374083
  36.2950113   9.2301673  32.5814083  35.6060113  10.3441673  32.1754083
  35.7510113   9.7821673  32.7014083  30.1190113   9.8601673  18.8294083
  30.8030113   9.3461673  18.6604083  29.7020113   9.9061673  18.0644083
  30.1580113   9.7911673  18.6914083  24.8010113  11.0101673  30.1334083
  24.5030113  11.6021673  30.7004083  24.8560113  11.4521673  29.3844083
  24.7650113  11.1631673  30.1064083  22.7800113   9.9601673  33.5314083
  21.9740113   9.6701673  33.6984083  22.6910113  10.8281673  33.5374083
  22.6480113  10.0451673  33.5564083  27.3170113   7.4331673  29.6244083
  27.7930113   7.8071673  30.2524083  26.4940113   7.5671673  29.8834083
  27.2660113   7.5081673  29.7554083  24.0270113   3.0361673  32.3654083
  24.1880113   2.2921673  32.7924083  23.9820113   2.7871673  31.5304083
  24.0440113   2.8891673  32.3054083  26.5810113  14.8261673  24.8524083
  27.1270113  15.5051673  24.9064083  26.2310113  14.9081673  24.0574083
  26.6100113  14.9391673  24.7424083  24.7640113  13.0541673  28.2414083
  24.1400113  13.6361673  28.0594083  25.0120113  12.7681673  27.4554083
  24.7080113  13.0981673  28.0984083  29.0730113   9.6881673  35.2304083
  29.8300113   9.9741673  34.9044083  28.5260113   9.7401673  34.5524083
  29.1040113   9.7381673  35.0814083  32.9820113  12.2381673  33.7344083
  33.3280113  12.5081673  34.4884083  33.2760113  12.8201673  33.1544083
  33.0770113  12.3641673  33.7604083  34.8450113   4.3841673  19.0734083
  35.2230113   5.0611673  18.6734083  34.0030113   4.6081673  19.1044083
  34.7760113   4.5171673  19.0184083  26.3580113   7.8301673  18.1564083
  25.5530113   7.6531673  17.8714083  26.3250113   8.6811673  18.3484083
  26.2340113   7.9291673  18.1434083  22.2880113   3.8971673  28.3064083
  22.7280113   3.7941673  27.5604083  22.8330113   3.5841673  28.9114083
  22.4330113   3.8361673  28.2854083  30.3040113   2.9991673  33.8984083
  29.6560113   3.4691673  34.2464083  30.8690113   2.9101673  34.5574083
  30.2920113   3.0551673  34.0474083  29.9920113   4.5361673  30.1964083
  30.2940113   4.9561673  30.8994083  30.0280113   3.6961673  30.4284083
  30.0420113   4.4741673  30.3344083  27.4170113  14.7031673  34.1214083
  27.8950113  14.1031673  33.7054083  27.0660113  14.2601673  34.7864083
  27.4360113  14.5491673  34.1584083  32.5400113   3.9831673  22.4484083
  32.7470113   3.7821673  23.2724083  33.2960113   4.2511673  22.1064083
  32.6820113   3.9931673  22.5194083  34.0050113   8.0101673  22.3024083
  34.4810113   7.2811673  22.2544083  33.1840113   7.7241673  22.2264083
  33.9540113   7.8601673  22.2834083  27.4760113   9.9221673  33.1414083
  26.6810113   9.8581673  33.4924083  27.5470113  10.7691673  32.9464083
  27.3690113  10.0371673  33.1644083  23.3060113  16.1291673  28.4584083
  23.3170113  16.1881673  29.3284083  22.8810113  15.3821673  28.3084083
  23.2450113  16.0271673  28.5644083  30.2210113   9.1771673  24.6574083
  30.2970113   9.5181673  25.4564083  30.3900113   8.3301673  24.7784083
  30.2570113   9.1021673  24.7934083  27.7430113   8.4511673  24.2224083
  27.4450113   8.1361673  24.9794083  28.4380113   8.9241673  24.4574083
  27.8020113   8.4741673  24.3694083  27.9650113  12.5691673  32.2494083
  28.6520113  12.4551673  32.7744083  28.0990113  13.3601673  31.9054083
  28.0860113  12.6691673  32.2764083  36.1410113   5.1781673  34.0604083
  35.2860113   5.0561673  34.1864083  36.2940113   4.7831673  33.2974083
  36.0370113   5.1011673  33.9664083  30.6540113   5.8431673  32.6364083
  30.3990113   5.1241673  33.0584083  31.4750113   5.9591673  32.9064083
  30.7380113   5.7541673  32.7384083  20.0700113  15.6271673  33.9004083
  19.4160113  15.0581673  33.9984083  19.6950113  16.4001673  34.0514083
  19.9180113  15.6571673  33.9374083  28.5880113   7.0331673  35.8234083
  28.9110113   7.7191673  35.3914083  27.8840113   7.3561673  36.2254083
  28.5310113   7.1821673  35.8184083  31.6720113  15.4071673  26.7524083
  31.2210113  16.0501673  27.1314083  32.3800113  15.3281673  27.2574083
  31.7100113  15.4901673  26.8834083  28.3730113  10.4971673  29.6824083
  27.6790113  10.8991673  30.0254083  29.0500113  10.9301673  30.0214083
  28.3700113  10.6201673  29.7834083  33.7500113  13.0901673  36.2624083
  34.5260113  12.7001673  36.3454083  33.2810113  12.7541673  36.9174083
  33.7950113  12.9831673  36.3714083  21.4410113   4.0351673  32.0294083
  21.8160113   4.6541673  31.5424083  22.1150113   3.5611673  32.3144083
  21.5960113   4.0571673  31.9994083  19.2160113   2.4831673  31.3044083
  19.2930113   2.3141673  30.4514083  19.9620113   2.8891673  31.5014083
  19.3370113   2.5181673  31.2074083  34.7750113   5.1231673  21.7444083
  34.8780113   5.0651673  20.8804083  35.5160113   4.7911673  22.0624083
  34.9000113   5.0661673  21.6634083  28.6950113  12.0881673  22.8514083
  28.4900113  12.9211673  22.6924083  27.9200113  11.7061673  22.9734083
  28.5500113  12.1551673  22.8464083  33.8770113   5.2691673  31.1004083
  33.8750113   4.4061673  31.2244083  33.9440113   5.5931673  31.9074083
  33.8870113   5.1891673  31.2374083  18.6130113   7.7091673  31.5284083
  18.9330113   7.9281673  30.7474083  18.5130113   6.8441673  31.4734083
  18.6450113   7.6141673  31.4054083  20.0690113   3.6451673  18.1464083
  19.3970113   3.6591673  18.7024083  20.1640113   2.7971673  17.9624083
  19.9840113   3.5221673  18.2014083  24.0570113  12.3501673  19.2604083
  24.4980113  12.4301673  20.0084083  23.2520113  12.1341673  19.5184083
  24.0030113  12.3301673  19.4094083  23.3760113   7.0011673  32.9134083
  22.9800113   7.7751673  32.9884083  22.9700113   6.6281673  32.2374083
  23.2580113   7.0601673  32.8244083  32.6520113   6.0551673  27.0274083
  33.3180113   6.5961673  27.1874083  32.3070113   6.3661673  26.2884083
  32.6990113   6.1811673  26.9424083  32.9650113  14.1211673  22.8344083
  32.7910113  13.4671673  23.3844083  33.6780113  13.8501673  22.4114083
  33.0450113  13.9841673  22.8534083  21.3860113  11.4201673  19.8614083
  21.1420113  11.1131673  20.6414083  21.3530113  10.7171673  19.3454083
  21.3450113  11.2711673  19.9004083  24.2050113   9.6651673  18.6044083
  23.3870113   9.3971673  18.7444083  24.1770113  10.5171673  18.7894083
  24.0800113   9.7521673  18.6524083  30.6400113  11.5741673  30.5254083
  30.8460113  11.8751673  31.3174083  30.5790113  12.2961673  30.0404083
  30.6610113  11.7251673  30.5704083  30.1740113  15.7881673  34.7714083
  29.4210113  15.7701673  34.3304083  30.3420113  16.6401673  34.8554083
  30.0880113  15.9111673  34.7184083  25.4110113   5.0551673  33.9414083
  25.0890113   4.4791673  33.3714083  25.0520113   5.8101673  33.6954083
  25.3110113   5.0811673  33.8214083  35.4520113  10.2131673  29.9834083
  35.4200113   9.3511673  29.8484083  34.7590113  10.5151673  29.5494083
  35.3450113  10.1301673  29.8994083  23.8460113  15.4111673  34.1894083
  23.8870113  15.5371673  35.0524083  24.4970113  14.8511673  34.0334083
  23.9480113  15.3471673  34.2944083  33.5570113  13.4731673  28.7804083
  34.0840113  13.3901673  28.0894083  33.1660113  12.6951673  28.8344083
  33.5770113  13.3461673  28.6864083  21.4390113  13.7941673  35.5494083
  22.0340113  14.2251673  36.0214083  21.0750113  14.4181673  35.0604083
  21.4730113  13.9501673  35.5464083  29.4300113   4.7251673  25.4814083
  29.9810113   4.1181673  25.7814083  29.0050113   4.9881673  26.1964083
  29.4490113   4.6741673  25.6304083  19.6780113   3.3751673  24.9674083
  19.3100113   3.6771673  25.6984083  20.2120113   2.7461673  25.2514083
  19.7020113   3.3271673  25.1174083  19.3660113  11.7831673  32.4784083
  18.7920113  12.1991673  32.9874083  20.0990113  12.2481673  32.5734083
  19.3900113  11.9131673  32.5674083  31.4000113   6.5561673  22.0434083
  31.4680113   5.7061673  22.2244083  30.5770113   6.6421673  21.7654083
  31.2880113   6.4431673  22.0294083  21.1520113  15.0501673  21.2534083
  21.0070113  15.2061673  20.4074083  22.0180113  15.1291673  21.3314083
  21.2590113  15.0851673  21.1404083  25.3190113   7.4471673  20.9814083
  25.4190113   7.5861673  20.1264083  26.1370113   7.3871673  21.2774083
  25.4540113   7.4581673  20.8984083  34.4790113  15.5111673  18.4614083
  35.1160113  15.3771673  19.0424083  34.1380113  14.7171673  18.3444083
  34.5230113  15.3741673  18.5294083  34.6740113   7.9291673  35.1944083
  35.3080113   7.7591673  35.7684083  35.0910113   8.3321673  34.5424083
  34.8290113   7.9641673  35.1834083  30.5540113  11.7761673  20.7834083
  30.3030113  11.6481673  21.6094083  30.2370113  11.0811673  20.3624083
  30.4700113  11.6551673  20.8434083  35.2990113   2.4931673  35.9324083
  35.1030113   3.1371673  36.4874083  34.5770113   2.0031673  35.9244083
  35.1640113   2.5161673  36.0134083  35.1980113   3.4341673  28.9034083
  34.3650113   3.6841673  28.8314083  35.1420113   2.5941673  29.1324083
  35.0670113   3.3471673  28.9264083  32.0850113   8.0401673  36.5494083
  32.9560113   8.0041673  36.5134083  31.8660113   8.4601673  35.8174083
  32.1820113   8.0961673  36.4364083  21.8390113  13.8651673  27.7304083
  21.7600113  13.0551673  27.4144083  21.3950113  14.3521673  27.1584083
  21.7620113  13.8171673  27.5994083  27.4400113   9.9841673  20.2134083
  28.1570113   9.6371673  19.8574083  27.4060113  10.7841673  19.8654083
  27.5410113  10.0511673  20.1094083  19.4110113  16.1091673  31.3114083
  19.9040113  16.0531673  32.0294083  19.5990113  15.3761673  30.8764083
  19.5120113  15.9921673  31.3534083  28.6580113   5.5411673   9.1231673
  28.1340113   6.1371673   9.4861673  29.0550113   5.1731673   9.8071673
  28.6390113   5.5751673   9.2781673  18.5270113   9.6811673   4.5791673
  18.0860113   9.7991673   5.3221673  18.2440113   8.9061673   4.2941673
  18.4200113   9.5841673   4.6471673  34.8020113  12.9821673   2.0941673
  35.5030113  12.4631673   2.0901673  34.2150113  12.5371673   1.6251673
  34.8190113  12.8391673   2.0241673  31.3290113   6.6081673   5.7991673
  31.4090113   6.6121673   4.9301673  30.7450113   5.9761673   5.9481673
  31.2540113   6.5151673   5.6931673  21.0360113  10.3771673   3.6581673
  21.6440113  10.2071673   4.2611673  20.2850113  10.2371673   4.0791673
  21.0150113  10.3311673   3.8091673  18.4670113  12.4161673  10.8341673
  18.5960113  12.1361673  11.6501673  17.8570113  11.8751673  10.5251673
  18.3960113  12.2951673  10.9091673  25.0410113   9.9411673  15.9011673
  24.8050113   9.9381673  16.7411673  24.2930113   9.7931673  15.4771673
  24.8950113   9.9181673  15.9621673  19.9130113   6.9371673   5.0361673
  19.4510113   6.5451673   4.4091673  20.6130113   6.4241673   5.1281673
  19.9480113   6.8041673   4.9571673  25.0230113  13.1331673  13.1641673
  25.1610113  13.8931673  12.7571673  25.8140113  12.7681673  13.1911673
  25.1600113  13.1921673  13.1081673  21.9140113   5.0371673   5.0591673
  22.7310113   4.8501673   5.3021673  21.4370113   4.4231673   5.4551673
  21.9640113   4.9191673   5.1541673  26.1180113  11.0181673   7.6691673
  26.4660113  10.2191673   7.6991673  26.7830113  11.5221673   7.4141673
  26.2680113  10.9741673   7.6361673  26.1750113  10.4671673   3.8801673
  26.5060113   9.8231673   4.3661673  26.4150113  10.2561673   3.0691673
  26.2590113  10.3411673   3.8321673  28.1430113   4.5981673  15.2191673
  27.2950113   4.4991673  15.0411673  28.1720113   5.3431673  15.6731673
  28.0220113   4.6941673  15.2601673  18.3690113   4.6981673   8.0491673
  18.1130113   5.5291673   7.9741673  17.7050113   4.3151673   8.4661673
  18.2330113   4.7641673   8.1001673  18.2790113  14.4081673   5.9491673
  17.6870113  14.9661673   5.6361673  18.7050113  14.1391673   5.2371673
  18.2550113  14.4501673   5.7981673  24.1190113  12.2521673   3.4291673
  23.5400113  11.9771673   4.0211673  24.7430113  11.6431673   3.4541673
  24.1260113  12.1221673   3.5201673  28.4300113  14.9321673   2.9411673
  28.6440113  15.4591673   3.6031673  29.1970113  14.7581673   2.5621673
  28.5750113  14.9841673   2.9831673  19.8240113  13.0781673   3.8801673
  20.4800113  12.5031673   3.8951673  20.2130113  13.8271673   3.6591673
  19.9790113  13.1031673   3.8501673  30.8690113  14.9421673  11.2461673
  31.6130113  15.3981673  11.2361673  30.7480113  14.7281673  10.4091673
  30.9610113  14.9781673  11.1211673  20.6420113  11.5651673   7.3801673
  21.0650113  11.2091673   6.7061673  20.9660113  11.1431673   8.0721673
  20.7520113  11.4501673   7.3831673  23.8730113  14.4171673   6.6761673
  24.7170113  14.5211673   6.4811673  23.5760113  15.2351673   6.7441673
  23.9540113  14.5531673   6.6571673  27.6800113   3.8141673   4.7631673
  27.9670113   3.5821673   3.9731673  28.4120113   3.8931673   5.2321673
  27.8300113   3.7911673   4.7161673  22.8710113  15.6361673  12.4161673
  23.1630113  15.5691673  13.2361673  22.2450113  15.0311673  12.3711673
  22.8220113  15.5371673  12.5311673  17.7850113   1.7931673  14.4081673
  17.7810113   2.3801673  15.0541673  18.3790113   2.1051673  13.8511673
  17.8720113   1.9261673  14.4211673  30.1230113  12.1271673  14.9501673
  30.0890113  12.5091673  15.7341673  30.9770113  12.0851673  14.7791673
  30.2440113  12.1771673  15.0411673  20.8640113  13.7981673  11.5381673
  20.1660113  13.2901673  11.6641673  21.1240113  13.5931673  10.7301673
  20.7990113  13.6931673  11.4371673  28.0260113   2.5961673   2.0681673
  27.5180113   1.9341673   1.8141673  28.0780113   3.1001673   1.3581673
  27.9590113   2.5731673   1.9261673  28.5750113  15.2911673  12.4481673
  29.3430113  15.2111673  12.0421673  27.9920113  15.1701673  11.8101673
  28.6020113  15.2611673  12.2941673  34.8520113  15.8941673   5.3491673
  34.3970113  16.6111673   5.5501673  34.2380113  15.3231673   5.1071673
  34.6940113  15.9161673   5.3431673  26.6240113   1.9041673   6.4811673
  26.6980113   2.4721673   5.8231673  26.7450113   2.3961673   7.1911673
  26.6520113   2.0611673   6.4891673  31.8490113  11.7391673   4.8931673
  32.5500113  11.2571673   5.0821673  31.1890113  11.1701673   4.9381673
  31.8550113  11.5841673   4.9271673  22.2250113  12.6491673  14.1051673
  23.0660113  12.7121673  13.8831673  22.1880113  13.0461673  14.8811673
  22.3440113  12.7171673  14.1871673  24.1880113   8.1601673   8.8541673
  24.3600113   7.9501673   9.6831673  23.5330113   7.6261673   8.6381673
  24.1170113   8.0501673   8.9451673  24.9380113   8.0981673  11.4441673
  24.9910113   8.9451673  11.6461673  24.6530113   7.7281673  12.1811673
  24.9040113   8.1681673  11.5821673  31.1150113   8.7931673  10.5741673
  30.6010113   8.3811673  11.1451673  30.9890113   9.6371673  10.7551673
  31.0210113   8.8571673  10.6851673  17.7590113  12.4691673  17.6551673
  18.5150113  12.8181673  17.9131673  17.9360113  11.6161673  17.5981673
  17.8970113  12.3941673  17.6851673  34.1360113   2.2541673  13.5131673
  34.9080113   2.0291673  13.8501673  33.6610113   2.4711673  14.2131673
  34.1800113   2.2531673  13.6661673  21.5040113   8.9641673   6.0321673
  22.3550113   8.8841673   5.8591673  21.1470113   8.2821673   5.6201673
  21.5770113   8.8511673   5.9451673  20.2710113  15.6891673   7.2691673
  19.5980113  15.1911673   7.0241673  20.6740113  15.8741673   6.5181673
  20.2310113  15.6431673   7.1221673  19.8210113   2.6391673   9.5651673
  20.6640113   2.8591673   9.5221673  19.4320113   3.2121673   9.0341673
  19.8880113   2.7561673   9.4801673  36.6020113  13.7411673  14.9551673
  35.9200113  14.0511673  14.5081673  36.2330113  13.2831673  15.6001673
  36.4460113  13.7191673  14.9841673  23.8720113   8.9711673   4.2671673
  24.5850113   9.4661673   4.3571673  24.0940113   8.4041673   3.6411673
  24.0100113   8.9601673   4.1881673  18.0280113  10.6141673   7.5871673
  17.3610113  11.1021673   7.8631673  18.7080113  11.1591673   7.6161673
  18.0300113  10.7661673   7.6321673  25.6750113   4.3241673  17.6831673
  25.1910113   4.9011673  18.1251673  25.6470113   4.6191673  16.8621673
  25.5990113   4.4531673  17.6271673  36.7730113   5.0081673  12.2951673
  36.9880113   4.2081673  12.0191673  35.9230113   5.0681673  12.1061673
  36.6790113   4.8991673  12.2261673  18.0940113   7.2981673   2.6901673
  17.9090113   6.4591673   2.8421673  18.7530113   7.2621673   2.1201673
  18.1640113   7.1691673   2.6281673  28.3950113  12.6741673   6.5941673
  27.8720113  13.3081673   6.3011673  28.7050113  12.3101673   5.8651673
  28.3630113  12.7141673   6.4431673  18.2660113  11.4621673   2.2651673
  18.8180113  12.0311673   2.6291673  18.0340113  10.9471673   2.9301673
  18.3130113  11.4701673   2.4171673  22.4700113  10.4621673   9.3541673
  22.9370113  10.7511673  10.0321673  23.0420113   9.9841673   8.9001673
  22.6240113  10.4341673   9.3871673  19.0360113   8.1321673   7.8981673
  19.4670113   8.0031673   7.1511673  18.8310113   8.9801673   7.8721673
  19.0690113   8.2381673   7.7841673  34.4360113  14.1231673  13.0451673
  33.7650113  14.6371673  13.2631673  34.4990113  14.2231673  12.1811673
  34.3460113  14.2141673  12.9501673  23.1200113  11.6481673   6.1801673
  23.2460113  12.4911673   6.3671673  23.7880113  11.2491673   6.5761673
  23.2380113  11.7141673   6.2661673  21.2500113   5.1311673  16.0421673
  20.7140113   4.6251673  16.5101673  21.2700113   4.7411673  15.2621673
  21.1730113   4.9981673  15.9961673  21.9020113   6.3581673   7.7811673
  21.1210113   6.2991673   7.3981673  21.9740113   5.6061673   8.2181673
  21.7970113   6.2391673   7.7891673  22.3320113   6.0951673  11.2491673
  22.3570113   5.4201673  10.6981673  21.6860113   6.5911673  10.9371673
  22.2410113   6.0681673  11.1221673  32.2270113   3.8081673   9.6451673
  31.5650113   4.1361673  10.1081673  32.4140113   4.4421673   9.0761673
  32.1570113   3.9501673   9.6291673  26.4320113  14.8721673  10.6411673
  26.1550113  14.2311673  10.1181673  26.2240113  15.5981673  10.2031673
  26.3610113  14.8851673  10.4991673  30.4200113   1.7771673   3.1561673
  30.9100113   2.4941673   3.0791673  29.6300113   2.0381673   2.8931673
  30.3760113   1.9211673   3.1061673  20.1310113   7.4501673  16.8081673
  20.0940113   7.9511673  16.0941673  20.4620113   6.6981673  16.5131673
  20.1740113   7.4121673  16.6591673  31.7340113   9.6551673  15.0661673
  32.2180113  10.3731673  15.1641673  32.1280113   9.2281673  14.4151673
  31.8640113   9.6981673  14.9841673  26.0300113  12.5001673  16.2431673
  26.3840113  12.3221673  17.0201673  25.5940113  11.7711673  16.0441673
  26.0180113  12.3661673  16.3291673  27.0020113   3.2471673   8.8811673
  27.4820113   3.9461673   9.0891673  27.3750113   2.6001673   9.3321673
  27.1280113   3.2551673   8.9781673  34.1630113  10.2861673   5.1361673
  34.5190113   9.9361673   5.8511673  34.1550113   9.6251673   4.5661673
  34.2150113  10.1361673   5.1571673  30.2080113  13.3521673   8.9801673
  29.6050113  13.0561673   8.4231673  30.7530113  13.8041673   8.4711673
  30.1990113  13.3751673   8.8221673  30.2210113  10.2031673   8.3801673
  29.4240113  10.4271673   8.6541673  30.4790113   9.6091673   8.9651673
  30.1410113  10.1481673   8.5071673  24.1130113  15.0151673   2.8281673
  23.9660113  14.2391673   3.1991673  24.8020113  14.8681673   2.3131673
  24.1930113  14.8781673   2.8071673  33.4810113   8.2011673  13.2261673
  33.5360113   8.3261673  12.3641673  34.2340113   8.5211673  13.5281673
  33.6000113   8.2661673  13.1431673  29.6720113  13.5501673  17.5031673
  29.8360113  13.8331673  18.3121673  29.9350113  14.2111673  16.9981673
  29.7350113  13.6901673  17.5481673  20.9060113   7.0651673   2.0591673
  21.2300113   6.2861673   1.8371673  21.5520113   7.4331673   2.5141673
  21.0490113   7.0041673   2.0931673  29.2120113   8.0071673  12.8261673
  29.0570113   8.6171673  13.4301673  29.7460113   7.4491673  13.2321673
  29.2680113   8.0151673  12.9751673  27.5960113   6.4071673   3.4841673
  27.6550113   7.0571673   4.0631673  27.4070113   5.7111673   3.9751673
  27.5770113   6.4001673   3.6421673  32.8220113  10.7361673   9.3531673
  32.3430113  11.0341673   8.6871673  32.4660113   9.9601673   9.5311673
  32.6990113  10.6651673   9.2811673  26.8190113   8.4541673   7.9151673
  25.9720113   8.2601673   7.9961673  27.1430113   8.2891673   8.7081673
  26.7410113   8.4011673   8.0441673  20.6670113   8.1471673  10.2311673
  21.3890113   8.6351673  10.1941673  20.3970113   8.1171673   9.4021673
  20.7340113   8.2151673  10.1031673  23.8970113   3.3181673   6.9661673
  24.7430113   3.1281673   7.0641673  23.5270113   2.5411673   6.8281673
  23.9670113   3.1751673   6.9601673  18.7180113   4.6561673   3.6211673
  19.2070113   4.3641673   4.2821673  18.8470113   4.0631673   2.9941673
  18.8090113   4.5251673   3.6261673  33.7530113   7.6781673  10.4721673
  33.7460113   6.9021673  10.8701673  32.9120113   7.9121673  10.4651673
  33.6280113   7.5981673  10.5301673  20.0620113   9.1991673  14.5091673
  19.6410113   8.6811673  13.9481673  19.7100113   9.9851673  14.3661673
  19.9480113   9.2391673  14.4051673  35.0090113   7.7491673   7.9091673
  34.7230113   8.1501673   8.6291673  35.8690113   7.6871673   8.0361673
  35.0940113   7.7991673   8.0341673  24.6980113   4.5511673   1.8171673
  24.9700113   5.3771673   1.8841673  23.8350113   4.6261673   1.7211673
  24.6110113   4.6841673   1.8121673  36.1400113  13.3821673   8.4381673
  36.4300113  13.6391673   7.6571673  36.8350113  13.4781673   8.9571673
  36.2860113  13.4341673   8.3991673  31.1630113   5.2421673  16.5251673
  31.2360113   5.3461673  17.3881673  30.5290113   5.8001673  16.3041673
  31.0800113   5.3401673  16.6201673  33.4310113   5.5611673  14.8901673
  33.7500113   6.3471673  15.0931673  33.0610113   5.2911673  15.6331673
  33.4240113   5.6371673  15.0301673  33.2270113   3.8191673   6.0791673
  32.4820113   3.4961673   6.3971673  33.2290113   4.6451673   6.3591673
  33.1170113   3.8931673   6.1671673  36.1290113   6.1031673  17.6251673
  36.0770113   5.7621673  16.8241673  36.8660113   6.5701673  17.6031673
  36.2300113   6.1221673  17.5031673  35.6670113   9.7791673  13.8311673
  36.2950113   9.2301673  13.5751673  35.6060113  10.3441673  13.1691673
  35.7510113   9.7821673  13.6951673  24.8010113  11.0101673  11.1271673
  24.5030113  11.6021673  11.6941673  24.8560113  11.4521673  10.3781673
  24.7650113  11.1631673  11.1001673  22.7800113   9.9601673  14.5251673
  21.9740113   9.6701673  14.6921673  22.6910113  10.8281673  14.5311673
  22.6480113  10.0451673  14.5501673  27.3170113   7.4331673  10.6181673
  27.7930113   7.8071673  11.2461673  26.4940113   7.5671673  10.8771673
  27.2660113   7.5081673  10.7491673  24.0270113   3.0361673  13.3591673
  24.1880113   2.2921673  13.7861673  23.9820113   2.7871673  12.5241673
  24.0440113   2.8891673  13.2991673  26.5810113  14.8261673   5.8461673
  27.1270113  15.5051673   5.9001673  26.2310113  14.9081673   5.0511673
  26.6100113  14.9391673   5.7361673  24.7640113  13.0541673   9.2351673
  24.1400113  13.6361673   9.0531673  25.0120113  12.7681673   8.4491673
  24.7080113  13.0981673   9.0921673  29.0730113   9.6881673  16.2241673
  29.8300113   9.9741673  15.8981673  28.5260113   9.7401673  15.5461673
  29.1040113   9.7381673  16.0751673  32.9820113  12.2381673  14.7281673
  33.3280113  12.5081673  15.4821673  33.2760113  12.8201673  14.1481673
  33.0770113  12.3641673  14.7541673  22.2880113   3.8971673   9.3001673
  22.7280113   3.7941673   8.5541673  22.8330113   3.5841673   9.9051673
  22.4330113   3.8361673   9.2791673  30.3040113   2.9991673  14.8921673
  29.6560113   3.4691673  15.2401673  30.8690113   2.9101673  15.5511673
  30.2920113   3.0551673  15.0411673  29.9920113   4.5361673  11.1901673
  30.2940113   4.9561673  11.8931673  30.0280113   3.6961673  11.4221673
  30.0420113   4.4741673  11.3281673  27.4170113  14.7031673  15.1151673
  27.8950113  14.1031673  14.6991673  27.0660113  14.2601673  15.7801673
  27.4360113  14.5491673  15.1521673  32.5400113   3.9831673   3.4421673
  32.7470113   3.7821673   4.2661673  33.2960113   4.2511673   3.1001673
  32.6820113   3.9931673   3.5131673  34.0050113   8.0101673   3.2961673
  34.4810113   7.2811673   3.2481673  33.1840113   7.7241673   3.2201673
  33.9540113   7.8601673   3.2771673  27.4760113   9.9221673  14.1351673
  26.6810113   9.8581673  14.4861673  27.5470113  10.7691673  13.9401673
  27.3690113  10.0371673  14.1581673  23.3060113  16.1291673   9.4521673
  23.3170113  16.1881673  10.3221673  22.8810113  15.3821673   9.3021673
  23.2450113  16.0271673   9.5581673  30.2210113   9.1771673   5.6511673
  30.2970113   9.5181673   6.4501673  30.3900113   8.3301673   5.7721673
  30.2570113   9.1021673   5.7871673  27.7430113   8.4511673   5.2161673
  27.4450113   8.1361673   5.9731673  28.4380113   8.9241673   5.4511673
  27.8020113   8.4741673   5.3631673  27.9650113  12.5691673  13.2431673
  28.6520113  12.4551673  13.7681673  28.0990113  13.3601673  12.8991673
  28.0860113  12.6691673  13.2701673  36.1410113   5.1781673  15.0541673
  35.2860113   5.0561673  15.1801673  36.2940113   4.7831673  14.2911673
  36.0370113   5.1011673  14.9601673  30.6540113   5.8431673  13.6301673
  30.3990113   5.1241673  14.0521673  31.4750113   5.9591673  13.9001673
  30.7380113   5.7541673  13.7321673  20.0700113  15.6271673  14.8941673
  19.4160113  15.0581673  14.9921673  19.6950113  16.4001673  15.0451673
  19.9180113  15.6571673  14.9311673  28.5880113   7.0331673  16.8171673
  28.9110113   7.7191673  16.3851673  27.8840113   7.3561673  17.2191673
  28.5310113   7.1821673  16.8121673  31.6720113  15.4071673   7.7461673
  31.2210113  16.0501673   8.1251673  32.3800113  15.3281673   8.2511673
  31.7100113  15.4901673   7.8771673  28.3730113  10.4971673  10.6761673
  27.6790113  10.8991673  11.0191673  29.0500113  10.9301673  11.0151673
  28.3700113  10.6201673  10.7771673  33.7500113  13.0901673  17.2561673
  34.5260113  12.7001673  17.3391673  33.2810113  12.7541673  17.9111673
  33.7950113  12.9831673  17.3651673  21.4410113   4.0351673  13.0231673
  21.8160113   4.6541673  12.5361673  22.1150113   3.5611673  13.3081673
  21.5960113   4.0571673  12.9931673  19.2160113   2.4831673  12.2981673
  19.2930113   2.3141673  11.4451673  19.9620113   2.8891673  12.4951673
  19.3370113   2.5181673  12.2011673  34.7750113   5.1231673   2.7381673
  34.8780113   5.0651673   1.8741673  35.5160113   4.7911673   3.0561673
  34.9000113   5.0661673   2.6571673  28.6950113  12.0881673   3.8451673
  28.4900113  12.9211673   3.6861673  27.9200113  11.7061673   3.9671673
  28.5500113  12.1551673   3.8401673  33.8770113   5.2691673  12.0941673
  33.8750113   4.4061673  12.2181673  33.9440113   5.5931673  12.9011673
  33.8870113   5.1891673  12.2311673  18.6130113   7.7091673  12.5221673
  18.9330113   7.9281673  11.7411673  18.5130113   6.8441673  12.4671673
  18.6450113   7.6141673  12.3991673  23.3760113   7.0011673  13.9071673
  22.9800113   7.7751673  13.9821673  22.9700113   6.6281673  13.2311673
  23.2580113   7.0601673  13.8181673  32.6520113   6.0551673   8.0211673
  33.3180113   6.5961673   8.1811673  32.3070113   6.3661673   7.2821673
  32.6990113   6.1811673   7.9361673  32.9650113  14.1211673   3.8281673
  32.7910113  13.4671673   4.3781673  33.6780113  13.8501673   3.4051673
  33.0450113  13.9841673   3.8471673  30.6400113  11.5741673  11.5191673
  30.8460113  11.8751673  12.3111673  30.5790113  12.2961673  11.0341673
  30.6610113  11.7251673  11.5641673  30.1740113  15.7881673  15.7651673
  29.4210113  15.7701673  15.3241673  30.3420113  16.6401673  15.8491673
  30.0880113  15.9111673  15.7121673  25.4110113   5.0551673  14.9351673
  25.0890113   4.4791673  14.3651673  25.0520113   5.8101673  14.6891673
  25.3110113   5.0811673  14.8151673  35.4520113  10.2131673  10.9771673
  35.4200113   9.3511673  10.8421673  34.7590113  10.5151673  10.5431673
  35.3450113  10.1301673  10.8931673  23.8460113  15.4111673  15.1831673
  23.8870113  15.5371673  16.0461673  24.4970113  14.8511673  15.0271673
  23.9480113  15.3471673  15.2881673  33.5570113  13.4731673   9.7741673
  34.0840113  13.3901673   9.0831673  33.1660113  12.6951673   9.8281673
  33.5770113  13.3461673   9.6801673  21.4390113  13.7941673  16.5431673
  22.0340113  14.2251673  17.0151673  21.0750113  14.4181673  16.0541673
  21.4730113  13.9501673  16.5401673  29.4300113   4.7251673   6.4751673
  29.9810113   4.1181673   6.7751673  29.0050113   4.9881673   7.1901673
  29.4490113   4.6741673   6.6241673  19.6780113   3.3751673   5.9611673
  19.3100113   3.6771673   6.6921673  20.2120113   2.7461673   6.2451673
  19.7020113   3.3271673   6.1111673  19.3660113  11.7831673  13.4721673
  18.7920113  12.1991673  13.9811673  20.0990113  12.2481673  13.5671673
  19.3900113  11.9131673  13.5611673  31.4000113   6.5561673   3.0371673
  31.4680113   5.7061673   3.2181673  30.5770113   6.6421673   2.7591673
  31.2880113   6.4431673   3.0231673  21.1520113  15.0501673   2.2471673
  21.0070113  15.2061673   1.4011673  22.0180113  15.1291673   2.3251673
  21.2590113  15.0851673   2.1341673  34.6740113   7.9291673  16.1881673
  35.3080113   7.7591673  16.7621673  35.0910113   8.3321673  15.5361673
  34.8290113   7.9641673  16.1771673  30.5540113  11.7761673   1.7771673
  30.3030113  11.6481673   2.6031673  30.2370113  11.0811673   1.3561673
  30.4700113  11.6551673   1.8371673  35.2990113   2.4931673  16.9261673
  35.1030113   3.1371673  17.4811673  34.5770113   2.0031673  16.9181673
  35.1640113   2.5161673  17.0071673  35.1980113   3.4341673   9.8971673
  34.3650113   3.6841673   9.8251673  35.1420113   2.5941673  10.1261673
  35.0670113   3.3471673   9.9201673  32.0850113   8.0401673  17.5431673
  32.9560113   8.0041673  17.5071673  31.8660113   8.4601673  16.8111673
  32.1820113   8.0961673  17.4301673  21.8390113  13.8651673   8.7241673
  21.7600113  13.0551673   8.4081673  21.3950113  14.3521673   8.1521673
  21.7620113  13.8171673   8.5931673  19.4110113  16.1091673  12.3051673
  19.9040113  16.0531673  13.0231673  19.5990113  15.3761673  11.8701673
  19.5120113  15.9921673  12.3471673   9.9841673  54.0594913  80.4771313
   9.7391673  54.5474913  79.7971313  10.8471673  53.9864913  80.3771313
  10.0751673  54.1204913  80.3621313   9.7931673  60.9754913  85.1481313
   9.2691673  61.5714913  85.5111313  10.1901673  60.6074913  85.8321313
   9.7741673  61.0094913  85.3031313   2.5441673  64.1704913  75.7831313
   2.1521673  63.7994913  75.0971313   2.4641673  63.5724913  76.4121313
   2.4741673  64.0274913  75.7741313  12.4641673  62.0424913  81.8241313
  12.5441673  62.0464913  80.9551313  11.8801673  61.4104913  81.9731313
  12.3891673  61.9494913  81.7181313   6.4531673  55.1464913  79.6321313
   6.3831673  55.8234913  79.0861313   7.1941673  54.7584913  79.3831313
   6.5521673  55.1894913  79.5141313   5.5561673  57.9814913  86.4081313
   6.2341673  57.9994913  85.8591313   5.5111673  57.1454913  86.6531313
   5.6491673  57.8604913  86.3631313   3.0491673  60.4714913  81.0841313
   3.8661673  60.2844913  81.3271313   2.5721673  59.8574913  81.4801313
   3.0991673  60.3534913  81.1791313   7.2531673  66.4524913  83.6941313
   7.6011673  65.6534913  83.7241313   7.9181673  66.9564913  83.4391313
   7.4031673  66.4084913  83.6611313   7.3101673  65.9014913  79.9051313
   7.6411673  65.2574913  80.3911313   7.5501673  65.6904913  79.0941313
   7.3941673  65.7754913  79.8571313   3.6461673  55.5654913  80.3501313
   3.3501673  56.0664913  79.7001313   4.5131673  55.6434913  80.2931313
   3.7301673  55.6514913  80.2461313  13.8361673  52.9924913  90.3581313
  13.6781673  53.7614913  89.9761313  13.0641673  52.7724913  90.7021313
  13.6981673  53.0734913  90.3531313   6.6251673  54.7074913  82.5731313
   6.6981673  55.5674913  82.7021313   6.5871673  54.6324913  81.7051313
   6.6301673  54.8234913  82.4641313  11.2981673  57.6334913  74.8721313
  10.8481673  58.3144913  75.1791313  11.4121673  57.1294913  75.5751313
  11.2491673  57.6594913  75.0211313   5.2541673  67.6864913  79.4541313
   4.6751673  67.4114913  80.0461313   5.8781673  67.0774913  79.4791313
   5.2611673  67.5564913  79.5451313   2.5331673  54.9494913  84.5651313
   2.0121673  54.3214913  84.2571313   3.1241673  54.5124913  85.0361313
   2.5441673  54.7914913  84.5891313  16.6921673  57.6064913  81.1671313
  16.3461673  58.2844913  81.5931313  16.0561673  57.0084913  81.1831313
  16.5471673  57.6184913  81.2321313   1.7771673  66.9994913  83.4051313
   2.2001673  66.6434913  82.7311313   2.1011673  66.5774913  84.0971313
   1.8871673  66.8844913  83.4081313   8.8151673  59.2484913  80.7881313
   9.1021673  59.0164913  79.9981313   9.5471673  59.3274913  81.2571313
   8.9651673  59.2254913  80.7411313   9.5371673  59.5874913  75.9091313
   9.8181673  60.3754913  76.1581313   8.7611673  59.7524913  75.5461313
   9.4641673  59.7284913  75.8921313  16.3671673  55.9294913  86.5361313
  17.1241673  56.0014913  86.1081313  16.4301673  55.1564913  86.9351313
  16.4881673  55.8264913  86.5311313  11.9031673  55.6544913  76.7791313
  12.4431673  54.9724913  76.8551313  11.9651673  56.0524913  77.5531313
  11.9921673  55.6124913  76.9051313   9.1611673  58.0304913  78.0931313
   8.6531673  57.3684913  77.8391313   9.2131673  58.5344913  77.3831313
   9.0941673  58.0074913  77.9511313   9.1611673  54.9714913  77.9841313
   8.7061673  54.5694913  77.3581313   9.9341673  55.1264913  77.6091313
   9.2081673  54.9354913  77.8361313   7.7591673  57.3384913  82.5061313
   7.8331673  57.9064913  81.8481313   7.8801673  57.8304913  83.2161313
   7.7871673  57.4954913  82.5141313  12.9841673  67.1734913  80.9181313
  13.6851673  66.6914913  81.1071313  12.3241673  66.6044913  80.9631313
  12.9901673  67.0184913  80.9521313   2.3671673  53.1614913  80.8541313
   2.9031673  53.8494913  80.8441313   2.3701673  52.8874913  80.0261313
   2.4461673  53.2224913  80.7301313   5.3231673  63.5944913  84.8791313
   5.4951673  63.3844913  85.7081313   4.6681673  63.0604913  84.6631313
   5.2521673  63.4844913  84.9701313  11.5511673  57.5084913  88.3941313
  11.4561673  57.8274913  89.2001313  10.9581673  56.8694913  88.3561313
  11.4491673  57.4604913  88.5081313   6.0731673  63.5324913  87.4691313
   6.1261673  64.3794913  87.6711313   5.7881673  63.1624913  88.2061313
   6.0391673  63.6024913  87.6071313  12.2501673  64.2274913  86.5991313
  11.7361673  63.8154913  87.1701313  12.1241673  65.0714913  86.7801313
  12.1561673  64.2914913  86.7101313  12.8071673  53.4524913  81.2301313
  12.8561673  53.1344913  82.0411313  13.1301673  52.8084913  80.7371313
  12.8621673  53.3104913  81.2771313  15.2711673  57.6884913  89.5381313
  16.0431673  57.4634913  89.8751313  14.7961673  57.9054913  90.2381313
  15.3151673  57.6874913  89.6911313   2.8151673  56.9714913  82.5081313
   3.0871673  56.5414913  81.8001313   2.6391673  56.3354913  83.0791313
   2.8291673  56.8144913  82.4881313  15.5031673  64.6664913  76.7261313
  15.6221673  64.3794913  77.5411313  16.3101673  64.6874913  76.3961313
  15.6391673  64.6274913  76.7981313   2.6391673  64.3984913  82.0571313
   3.4901673  64.3184913  81.8841313   2.2821673  63.7164913  81.6451313
   2.7121673  64.2854913  81.9701313  13.3981673  61.2034913  76.3111313
  13.1781673  61.9344913  75.8891313  12.9501673  61.2544913  77.0581313
  13.2991673  61.3184913  76.3591313   5.0071673  64.4054913  80.2921313
   5.7201673  64.9004913  80.3821313   5.2291673  63.8384913  79.6661313
   5.1451673  64.3944913  80.2131313  17.5851673  56.0644913  75.7641313
  16.9231673  55.4964913  75.7871313  17.3921673  56.5764913  75.0841313
  17.4591673  56.0564913  75.6671313  17.9081673  60.4424913  88.3201313
  18.1231673  59.6424913  88.0441313  17.0581673  60.5024913  88.1311313
  17.8141673  60.3334913  88.2511313  15.5871673  55.6224913  78.0431313
  16.3331673  55.2154913  78.2421313  15.8501673  56.3374913  77.6181313
  15.7361673  55.6684913  78.0101313   3.6051673  65.8964913  85.3791313
   4.0721673  66.1854913  86.0571313   4.1771673  65.4184913  84.9251313
   3.7591673  65.8684913  85.4121313  12.0411673  57.9104913  83.1161313
  12.3851673  58.0624913  83.9031313  11.5881673  57.1724913  83.2291313
  12.0251673  57.8234913  83.2491313   6.5171673  57.1304913  77.5731313
   6.5151673  57.0134913  76.7081313   6.3361673  57.9784913  77.6651313
   6.4901673  57.2384913  77.4591313   4.2551673  67.0824913  82.2051313
   4.3811673  67.9254913  82.3921313   4.9231673  66.6834913  82.6011313
   4.3731673  67.1484913  82.2911313   2.8701673  59.9624913  77.2071313
   2.7421673  59.5144913  77.9451313   2.2881673  59.6204913  76.6551313
   2.7651673  59.8454913  77.2351313   3.0371673  61.7924913  83.8061313
   2.2561673  61.7334913  83.4231313   3.1091673  61.0404913  84.2431313
   2.9321673  61.6734913  83.8141313   3.4671673  61.5294913  87.2741313
   3.4921673  60.8544913  86.7231313   2.8211673  62.0254913  86.9621313
   3.3761673  61.5024913  87.1471313  13.3621673  59.2424913  85.6701313
  12.7001673  59.5704913  86.1331313  13.5491673  59.8764913  85.1011313
  13.2921673  59.3844913  85.6541313  10.0071673  55.1484913  89.0991313
  10.1561673  54.3234913  88.8561313  10.3861673  55.2034913  89.8831313
  10.0851673  55.0344913  89.1791313  11.5551673  57.2114913  79.1811313
  12.0451673  57.9284913  79.1041313  10.7651673  57.4724913  78.9181313
  11.5111673  57.3554913  79.1311313  12.8691673  65.0894913  91.0911313
  13.3531673  65.8074913  91.1891313  13.2631673  64.6624913  90.4401313
  12.9991673  65.1324913  91.0091313   8.1371673  58.6814913  84.9061313
   8.6171673  59.3804913  85.1141313   8.5101673  58.0344913  85.3571313
   8.2631673  58.6894913  85.0031313  10.3261673  61.8504913  77.1801313
  10.3181673  62.5724913  76.6901313   9.6871673  61.9854913  77.7571313
  10.2311673  61.9774913  77.1931313  15.2981673  65.7204913  81.1611313
  15.6541673  65.3704913  81.8761313  15.2901673  65.0594913  80.5911313
  15.3501673  65.5704913  81.1821313  11.3561673  65.6374913  84.4051313
  10.5591673  65.8614913  84.6791313  11.6141673  65.0434913  84.9901313
  11.2761673  65.5824913  84.5321313   4.9191673  54.1924913  76.8411313
   5.0161673  54.0854913  77.7021313   4.2111673  54.6984913  76.7761313
   4.8291673  54.2514913  76.9591313  14.6161673  63.6354913  89.2511313
  14.6711673  63.7604913  88.3891313  15.3691673  63.9554913  89.5531313
  14.7351673  63.7004913  89.1681313   2.0411673  62.4994913  78.0841313
   2.3651673  61.7204913  77.8621313   2.6871673  62.8674913  78.5391313
   2.1841673  62.4384913  78.1181313  10.3471673  63.4414913  88.8511313
  10.1921673  64.0514913  89.4551313  10.8811673  62.8834913  89.2571313
  10.4031673  63.4494913  89.0001313   8.7311673  61.8414913  79.5091313
   8.7901673  62.4914913  80.0881313   8.5421673  61.1454913  80.0001313
   8.7121673  61.8344913  79.6671313  13.9571673  66.1704913  85.3781313
  13.4781673  66.4684913  84.7121313  13.6011673  65.3944913  85.5561313
  13.8341673  66.0994913  85.3061313   3.2271673  56.3584913  76.0211313
   2.7161673  56.4114913  75.3151313   4.0111673  56.5984913  75.7251313
   3.2671673  56.4014913  75.8731313   7.9541673  63.8884913  83.9401313
   7.1071673  63.6944913  84.0211313   8.2781673  63.7234913  84.7331313
   7.8761673  63.8354913  84.0691313   5.0321673  58.7524913  82.9911313
   5.8781673  58.5624913  83.0891313   4.6621673  57.9754913  82.8531313
   5.1021673  58.6094913  82.9851313  14.8881673  63.1124913  86.4971313
  14.8811673  62.3364913  86.8951313  14.0471673  63.3464913  86.4901313
  14.7631673  63.0324913  86.5551313   4.3781673  61.5244913  75.1321313
   3.7681673  61.1194913  75.6061313   3.9921673  61.6424913  74.3591313
   4.2311673  61.4814913  75.0881313  16.1441673  63.1834913  83.9341313
  15.8581673  63.5844913  84.6541313  17.0041673  63.1214913  84.0611313
  16.2291673  63.2334913  84.0591313   5.8331673  59.9854913  77.8421313
   6.1051673  60.8114913  77.9091313   4.9701673  60.0604913  77.7461313
   5.7461673  60.1184913  77.8371313  13.8801673  67.4194913  76.4451313
  14.2141673  66.6134913  76.4801313  13.1251673  67.3474913  76.8751313
  13.8181673  67.2894913  76.5141313  14.3621673  59.2534913  82.1041313
  13.6171673  58.9304913  82.4221313  14.3641673  60.0794913  82.3841313
  14.2521673  59.3274913  82.1921313  16.8021673  65.2134913  89.8561313
  17.4301673  64.6644913  89.6001313  16.7411673  65.7784913  89.1941313
  16.8861673  65.2164913  89.7201313  11.2541673  65.2944913  75.8481313
  11.9381673  64.7804913  75.6791313  10.8371673  65.3404913  75.0831313
  11.2931673  65.2254913  75.7101313   5.9361673  66.4444913  87.1521313
   5.6381673  67.0364913  87.7191313   5.9911673  66.8864913  86.4031313
   5.9001673  66.5974913  87.1251313   3.9151673  65.3944913  90.5501313
   3.1091673  65.1044913  90.7171313   3.8261673  66.2624913  90.5561313
   3.7831673  65.4794913  90.5751313  13.2741673  55.5834913  89.5651313
  14.0181673  56.0354913  89.5021313  12.7081673  56.0534913  89.0961313
  13.3011673  55.7204913  89.4871313   8.4521673  62.8674913  86.6431313
   8.9281673  63.2414913  87.2711313   7.6291673  63.0014913  86.9021313
   8.4011673  62.9424913  86.7741313   5.1621673  58.4704913  89.3841313
   5.3231673  57.7264913  89.8111313   5.1171673  58.2214913  88.5491313
   5.1791673  58.3234913  89.3241313  14.5591673  53.5634913  87.2351313
  14.2791673  54.3884913  87.1911313  15.2751673  53.6164913  87.7311313
  14.6241673  53.6934913  87.3021313   6.9141673  54.2784913  89.2641313
   7.6191673  54.5984913  88.8621313   7.1551673  53.4714913  89.4911313
   7.0531673  54.2064913  89.2381313  15.9801673  59.8184913  76.0921313
  16.3581673  60.4954913  75.6921313  15.1381673  60.0424913  76.1231313
  15.9111673  59.9514913  76.0371313   7.4931673  63.2644913  75.1751313
   6.6881673  63.0874913  74.8901313   7.4601673  64.1154913  75.3671313
   7.3691673  63.3634913  75.1621313   3.4231673  59.3314913  85.3251313
   3.8631673  59.2284913  84.5791313   3.9681673  59.0184913  85.9301313
   3.5681673  59.2704913  85.3041313  11.1271673  59.9704913  87.2151313
  11.4291673  60.3904913  87.9181313  11.1631673  59.1304913  87.4471313
  11.1771673  59.9084913  87.3531313  13.6751673  59.4174913  79.4671313
  13.8821673  59.2164913  80.2911313  14.4311673  59.6854913  79.1251313
  13.8171673  59.4274913  79.5381313   6.9701673  54.3164913  85.3721313
   6.1441673  54.1674913  85.6091313   6.9301673  54.3514913  84.5011313
   6.8421673  54.2994913  85.2781313  14.6971673  55.5004913  80.9411313
  13.9831673  55.0294913  81.1121313  14.5351673  55.8414913  80.1551313
  14.5681673  55.4814913  80.8501313  15.1401673  63.4444913  79.3211313
  15.6161673  62.7154913  79.2731313  14.3191673  63.1584913  79.2451313
  15.0891673  63.2944913  79.3021313   8.6111673  65.3564913  90.1601313
   7.8161673  65.2924913  90.5111313   8.6821673  66.2034913  89.9651313
   8.5041673  65.4714913  90.1831313   2.5991673  57.4584913  78.6321313
   2.7251673  57.1294913  77.8341313   1.7871673  57.2094913  78.8311313
   2.4981673  57.3734913  78.5441313  11.3561673  64.6114913  81.6761313
  11.4321673  64.9524913  82.4751313  11.5251673  63.7644913  81.7971313
  11.3921673  64.5364913  81.8121313   8.8781673  63.8854913  81.2411313
   8.5801673  63.5704913  81.9981313   9.5731673  64.3584913  81.4761313
   8.9371673  63.9084913  81.3881313  17.2761673  60.6124913  91.0791313
  16.4211673  60.4904913  91.2051313  17.4291673  60.2174913  90.3161313
  17.1721673  60.5354913  90.9851313  11.7891673  61.2774913  89.6551313
  11.5341673  60.5584913  90.0771313  12.6101673  61.3934913  89.9251313
  11.8731673  61.1884913  89.7571313   9.5081673  65.9314913  86.7011313
   8.8141673  66.3334913  87.0441313  10.1851673  66.3644913  87.0401313
   9.5051673  66.0544913  86.8021313   2.5761673  59.4694913  89.0481313
   2.9511673  60.0884913  88.5611313   3.2501673  58.9954913  89.3331313
   2.7311673  59.4914913  89.0181313  15.9101673  60.5574913  78.7631313
  16.0131673  60.4994913  77.8991313  16.6511673  60.2254913  79.0811313
  16.0351673  60.5004913  78.6821313   2.9051673  55.3274913  90.7341313
   2.8241673  54.4834913  90.9401313   2.5911673  55.3714913  89.9211313
   2.8471673  55.2094913  90.6441313  15.0121673  60.7034913  88.1191313
  15.0101673  59.8404913  88.2431313  15.0791673  61.0274913  88.9261313
  15.0221673  60.6234913  88.2561313   9.8851673  55.6934913  82.7551313
   9.1851673  56.2114913  82.6991313   9.9231673  55.3134913  81.9711313
   9.7871673  55.7144913  82.6311313   5.1921673  67.7844913  76.2791313
   5.6331673  67.8644913  77.0271313   4.3871673  67.5684913  76.5371313
   5.1381673  67.7644913  76.4281313  13.4831673  56.2094913  85.5551313
  14.3381673  56.3084913  85.7001313  13.1141673  56.7624913  86.1201313
  13.5551673  56.3064913  85.6601313   4.5111673  62.4354913  89.9321313
   4.1151673  63.2094913  90.0071313   4.1051673  62.0624913  89.2561313
   4.3931673  62.4944913  89.8431313  13.7871673  61.4894913  84.0461313
  14.4531673  62.0304913  84.2061313  13.4421673  61.8004913  83.3071313
  13.8341673  61.6154913  83.9611313   2.5211673  66.8544913  76.8801313
   2.2771673  66.5474913  77.6601313   2.4881673  66.1514913  76.3641313
   2.4801673  66.7054913  76.9191313   5.3401673  65.0994913  75.6231313
   4.5221673  64.8314913  75.7631313   5.3121673  65.9514913  75.8081313
   5.2151673  65.1864913  75.6711313   4.9401673  55.4124913  87.3821313
   4.0761673  55.4964913  87.4621313   5.1601673  54.8984913  88.0511313
   4.8451673  55.3494913  87.4931313  16.9581673  54.0474913  88.7111313
  16.9061673  54.0034913  89.5811313  17.6451673  53.5444913  88.5211313
  17.0521673  53.9674913  88.8111313   9.0431673  56.1604913  85.7561313
   8.3061673  55.7064913  85.8691313   9.6141673  55.7584913  86.2791313
   9.0181673  56.0334913  85.8501313  11.7751673  67.0084913  87.5441313
  11.9811673  67.3094913  88.3361313  11.7141673  67.7304913  87.0591313
  11.7961673  67.1594913  87.5891313   6.5461673  60.4894913  90.9601313
   6.2241673  59.9134913  90.3901313   6.1871673  61.2444913  90.7141313
   6.4461673  60.5154913  90.8401313   7.3421673  53.7414913  75.5871313
   7.4201673  53.9884913  74.7541313   6.5991673  54.1184913  75.8451313
   7.2441673  53.8334913  75.5021313  16.5871673  65.6474913  87.0021313
  16.5551673  64.7854913  86.8671313  15.8941673  65.9494913  86.5681313
  16.4801673  65.5644913  86.9181313  11.2061673  54.3514913  85.0071313
  11.8761673  54.8954913  85.1341313  10.7031673  54.7754913  84.4341313
  11.2311673  54.4944913  84.9411313  10.5651673  60.1594913  82.5001313
  11.1161673  59.5524913  82.8001313  10.1401673  60.4224913  83.2151313
  10.5841673  60.1084913  82.6491313  12.5351673  61.9904913  79.0621313
  12.6031673  61.1404913  79.2431313  11.7121673  62.0764913  78.7841313
  12.4231673  61.8774913  79.0481313   6.4541673  62.8814913  78.0001313
   6.5541673  63.0204913  77.1451313   7.2721673  62.8214913  78.2961313
   6.5891673  62.8924913  77.9171313  11.6891673  67.2104913  77.8021313
  11.4381673  67.0824913  78.6281313  11.3721673  66.5154913  77.3811313
  11.6051673  67.0894913  77.8621313  16.3331673  58.8684913  85.9221313
  15.5001673  59.1184913  85.8501313  16.2771673  58.0284913  86.1511313
  16.2021673  58.7814913  85.9451313   5.5931673  55.8564913  91.1161313
   5.8271673  55.2804913  90.5031313   4.7511673  55.6754913  91.2571313
   5.5031673  55.7444913  91.0461313   8.5751673  65.4184913  77.2321313
   9.2921673  65.0714913  76.8761313   8.5411673  66.2184913  76.8841313
   8.6761673  65.4854913  77.1281313   9.9841673  54.0594913  61.4708903
   9.7391673  54.5474913  60.7908903  10.8471673  53.9864913  61.3708903
  10.0751673  54.1204913  61.3558903   9.7931673  60.9754913  66.1418903
   9.2691673  61.5714913  66.5048903  10.1901673  60.6074913  66.8258903
   9.7741673  61.0094913  66.2968903   2.5441673  64.1704913  56.7768903
   2.1521673  63.7994913  56.0908903   2.4641673  63.5724913  57.4058903
   2.4741673  64.0274913  56.7678903  12.4641673  62.0424913  62.8178903
  12.5441673  62.0464913  61.9488903  11.8801673  61.4104913  62.9668903
  12.3891673  61.9494913  62.7118903   6.4531673  55.1464913  60.6258903
   6.3831673  55.8234913  60.0798903   7.1941673  54.7584913  60.3768903
   6.5521673  55.1894913  60.5078903   6.1761673  65.3754913  72.9198903
   5.9401673  65.3724913  73.7598903   5.4281673  65.2274913  72.4958903
   6.0301673  65.3524913  72.9808903   5.5561673  57.9814913  67.4018903
   6.2341673  57.9994913  66.8528903   5.5111673  57.1454913  67.6468903
   5.6491673  57.8604913  67.3568903   3.0491673  60.4714913  62.0778903
   3.8661673  60.2844913  62.3208903   2.5721673  59.8574913  62.4738903
   3.0991673  60.3534913  62.1728903   7.2531673  66.4524913  64.6878903
   7.6011673  65.6534913  64.7178903   7.9181673  66.9564913  64.4328903
   7.4031673  66.4084913  64.6548903   7.3101673  65.9014913  60.8988903
   7.6411673  65.2574913  61.3848903   7.5501673  65.6904913  60.0878903
   7.3941673  65.7754913  60.8508903   9.2781673  60.0324913  72.2378903
   8.4301673  59.9334913  72.0598903   9.3071673  60.7774913  72.6918903
   9.1571673  60.1284913  72.2788903   3.6461673  55.5654913  61.3438903
   3.3501673  56.0664913  60.6938903   4.5131673  55.6434913  61.2868903
   3.7301673  55.6514913  61.2398903  13.8361673  52.9924913  71.3518903
  13.6781673  53.7614913  70.9698903  13.0641673  52.7724913  71.6958903
  13.6981673  53.0734913  71.3468903   6.6251673  54.7074913  63.5668903
   6.6981673  55.5674913  63.6958903   6.5871673  54.6324913  62.6988903
   6.6301673  54.8234913  63.4578903  11.2981673  57.6334913  55.8658903
  10.8481673  58.3144913  56.1728903  11.4121673  57.1294913  56.5688903
  11.2491673  57.6594913  56.0148903   5.2541673  67.6864913  60.4478903
   4.6751673  67.4114913  61.0398903   5.8781673  67.0774913  60.4728903
   5.2611673  67.5564913  60.5388903   2.5331673  54.9494913  65.5588903
   2.0121673  54.3214913  65.2508903   3.1241673  54.5124913  66.0298903
   2.5441673  54.7914913  65.5828903   5.8391673  57.0824913  74.8568903
   5.9561673  56.6284913  74.1208903   6.1271673  57.8804913  74.6538903
   5.8991673  57.1334913  74.7178903  16.6921673  57.6064913  62.1608903
  16.3461673  58.2844913  62.5868903  16.0561673  57.0084913  62.1768903
  16.5471673  57.6184913  62.2258903   1.7771673  66.9994913  64.3988903
   2.2001673  66.6434913  63.7248903   2.1011673  66.5774913  65.0908903
   1.8871673  66.8844913  64.4018903   8.2211673  54.3224913  73.0088903
   8.3991673  53.5134913  72.7338903   8.0781673  54.7634913  72.2698903
   8.2261673  54.2684913  72.8588903   8.8151673  59.2484913  61.7818903
   9.1021673  59.0164913  60.9918903   9.5471673  59.3274913  62.2508903
   8.9651673  59.2254913  61.7348903   9.5371673  59.5874913  56.9028903
   9.8181673  60.3754913  57.1518903   8.7611673  59.7524913  56.5398903
   9.4641673  59.7284913  56.8858903  16.3671673  55.9294913  67.5298903
  17.1241673  56.0014913  67.1018903  16.4301673  55.1564913  67.9288903
  16.4881673  55.8264913  67.5248903  11.2581673  67.5614913  71.9688903
  11.2241673  67.9434913  72.7528903  12.1121673  67.5194913  71.7978903
  11.3791673  67.6114913  72.0598903  11.9031673  55.6544913  57.7728903
  12.4431673  54.9724913  57.8488903  11.9651673  56.0524913  58.5468903
  11.9921673  55.6124913  57.8988903   9.1611673  58.0304913  59.0868903
   8.6531673  57.3684913  58.8328903   9.2131673  58.5344913  58.3768903
   9.0941673  58.0074913  58.9448903   9.1611673  54.9714913  58.9778903
   8.7061673  54.5694913  58.3518903   9.9341673  55.1264913  58.6028903
   9.2081673  54.9354913  58.8298903   7.7591673  57.3384913  63.4998903
   7.8331673  57.9064913  62.8418903   7.8801673  57.8304913  64.2098903
   7.7871673  57.4954913  63.5078903  12.9841673  67.1734913  61.9118903
  13.6851673  66.6914913  62.1008903  12.3241673  66.6044913  61.9568903
  12.9901673  67.0184913  61.9458903   2.3671673  53.1614913  61.8478903
   2.9031673  53.8494913  61.8378903   2.3701673  52.8874913  61.0198903
   2.4461673  53.2224913  61.7238903   5.3231673  63.5944913  65.8728903
   5.4951673  63.3844913  66.7018903   4.6681673  63.0604913  65.6568903
   5.2521673  63.4844913  65.9638903  11.5511673  57.5084913  69.3878903
  11.4561673  57.8274913  70.1938903  10.9581673  56.8694913  69.3498903
  11.4491673  57.4604913  69.5018903   6.0731673  63.5324913  68.4628903
   6.1261673  64.3794913  68.6648903   5.7881673  63.1624913  69.1998903
   6.0391673  63.6024913  68.6008903  12.2501673  64.2274913  67.5928903
  11.7361673  63.8154913  68.1638903  12.1241673  65.0714913  67.7738903
  12.1561673  64.2914913  67.7038903  12.8071673  53.4524913  62.2238903
  12.8561673  53.1344913  63.0348903  13.1301673  52.8084913  61.7308903
  12.8621673  53.3104913  62.2708903  15.2711673  57.6884913  70.5318903
  16.0431673  57.4634913  70.8688903  14.7961673  57.9054913  71.2318903
  15.3151673  57.6874913  70.6848903   2.8151673  56.9714913  63.5018903
   3.0871673  56.5414913  62.7938903   2.6391673  56.3354913  64.0728903
   2.8291673  56.8144913  63.4818903  15.5031673  64.6664913  57.7198903
  15.6221673  64.3794913  58.5348903  16.3101673  64.6874913  57.3898903
  15.6391673  64.6274913  57.7918903   2.6391673  64.3984913  63.0508903
   3.4901673  64.3184913  62.8778903   2.2821673  63.7164913  62.6388903
   2.7121673  64.2854913  62.9638903  13.3981673  61.2034913  57.3048903
  13.1781673  61.9344913  56.8828903  12.9501673  61.2544913  58.0518903
  13.2991673  61.3184913  57.3528903   5.0071673  64.4054913  61.2858903
   5.7201673  64.9004913  61.3758903   5.2291673  63.8384913  60.6598903
   5.1451673  64.3944913  61.2068903  17.5851673  56.0644913  56.7578903
  16.9231673  55.4964913  56.7808903  17.3921673  56.5764913  56.0778903
  17.4591673  56.0564913  56.6608903   6.8101673  59.7584913  74.7018903
   6.3261673  60.3354913  75.1438903   6.7821673  60.0534913  73.8808903
   6.7341673  59.8874913  74.6458903  17.9081673  60.4424913  69.3138903
  18.1231673  59.6424913  69.0378903  17.0581673  60.5024913  69.1248903
  17.8141673  60.3334913  69.2448903  15.5871673  55.6224913  59.0368903
  16.3331673  55.2154913  59.2358903  15.8501673  56.3374913  58.6118903
  15.7361673  55.6684913  59.0038903   3.6051673  65.8964913  66.3728903
   4.0721673  66.1854913  67.0508903   4.1771673  65.4184913  65.9188903
   3.7591673  65.8684913  66.4058903  12.0411673  57.9104913  64.1098903
  12.3851673  58.0624913  64.8968903  11.5881673  57.1724913  64.2228903
  12.0251673  57.8234913  64.2428903   6.5171673  57.1304913  58.5668903
   6.5151673  57.0134913  57.7018903   6.3361673  57.9784913  58.6588903
   6.4901673  57.2384913  58.4528903   4.2551673  67.0824913  63.1988903
   4.3811673  67.9254913  63.3858903   4.9231673  66.6834913  63.5948903
   4.3731673  67.1484913  63.2848903   2.3851673  60.5654913  73.0608903
   1.8491673  60.0594913  73.5288903   2.4051673  60.1754913  72.2808903
   2.3081673  60.4324913  73.0148903   2.8701673  59.9624913  58.2008903
   2.7421673  59.5144913  58.9388903   2.2881673  59.6204913  57.6488903
   2.7651673  59.8454913  58.2288903   3.0371673  61.7924913  64.7998903
   2.2561673  61.7334913  64.4168903   3.1091673  61.0404913  65.2368903
   2.9321673  61.6734913  64.8078903   3.4671673  61.5294913  68.2678903
   3.4921673  60.8544913  67.7168903   2.8211673  62.0254913  67.9558903
   3.3761673  61.5024913  68.1408903  13.3621673  59.2424913  66.6638903
  12.7001673  59.5704913  67.1268903  13.5491673  59.8764913  66.0948903
  13.2921673  59.3844913  66.6478903  10.0071673  55.1484913  70.0928903
  10.1561673  54.3234913  69.8498903  10.3861673  55.2034913  70.8768903
  10.0851673  55.0344913  70.1728903  11.5551673  57.2114913  60.1748903
  12.0451673  57.9284913  60.0978903  10.7651673  57.4724913  59.9118903
  11.5111673  57.3554913  60.1248903  12.8691673  65.0894913  72.0848903
  13.3531673  65.8074913  72.1828903  13.2631673  64.6624913  71.4338903
  12.9991673  65.1324913  72.0028903   7.1651673  67.9344913  73.2618903
   7.5191673  67.7564913  74.0388903   6.7291673  67.2054913  73.0628903
   7.1531673  67.8004913  73.3478903   8.1371673  58.6814913  65.8998903
   8.6171673  59.3804913  66.1078903   8.5101673  58.0344913  66.3508903
   8.2631673  58.6894913  65.9968903  10.3261673  61.8504913  58.1738903
  10.3181673  62.5724913  57.6838903   9.6871673  61.9854913  58.7508903
  10.2311673  61.9774913  58.1868903  15.2981673  65.7204913  62.1548903
  15.6541673  65.3704913  62.8698903  15.2901673  65.0594913  61.5848903
  15.3501673  65.5704913  62.1758903  11.3561673  65.6374913  65.3988903
  10.5591673  65.8614913  65.6728903  11.6141673  65.0434913  65.9838903
  11.2761673  65.5824913  65.5258903   4.9191673  54.1924913  57.8348903
   5.0161673  54.0854913  58.6958903   4.2111673  54.6984913  57.7698903
   4.8291673  54.2514913  57.9528903  14.6161673  63.6354913  70.2448903
  14.6711673  63.7604913  69.3828903  15.3691673  63.9554913  70.5468903
  14.7351673  63.7004913  70.1618903  15.6481673  53.9334913  73.2318903
  15.0111673  53.5334913  72.7898903  15.6741673  53.5024913  73.9898903
  15.5581673  53.8114913  73.2778903   2.0411673  62.4994913  59.0778903
   2.3651673  61.7204913  58.8558903   2.6871673  62.8674913  59.5328903
   2.1841673  62.4384913  59.1118903  10.3471673  63.4414913  69.8448903
  10.1921673  64.0514913  70.4488903  10.8811673  62.8834913  70.2508903
  10.4031673  63.4494913  69.9938903   8.7311673  61.8414913  60.5028903
   8.7901673  62.4914913  61.0818903   8.5421673  61.1454913  60.9938903
   8.7121673  61.8344913  60.6608903  13.9571673  66.1704913  66.3718903
  13.4781673  66.4684913  65.7058903  13.6011673  65.3944913  66.5498903
  13.8341673  66.0994913  66.2998903   3.2271673  56.3584913  57.0148903
   2.7161673  56.4114913  56.3088903   4.0111673  56.5984913  56.7188903
   3.2671673  56.4014913  56.8668903   7.9541673  63.8884913  64.9338903
   7.1071673  63.6944913  65.0148903   8.2781673  63.7234913  65.7268903
   7.8761673  63.8354913  65.0628903   5.0321673  58.7524913  63.9848903
   5.8781673  58.5624913  64.0828903   4.6621673  57.9754913  63.8468903
   5.1021673  58.6094913  63.9788903  14.8881673  63.1124913  67.4908903
  14.8811673  62.3364913  67.8888903  14.0471673  63.3464913  67.4838903
  14.7631673  63.0324913  67.5488903   4.3781673  61.5244913  56.1258903
   3.7681673  61.1194913  56.5998903   3.9921673  61.6424913  55.3528903
   4.2311673  61.4814913  56.0818903  16.1441673  63.1834913  64.9278903
  15.8581673  63.5844913  65.6478903  17.0041673  63.1214913  65.0548903
  16.2291673  63.2334913  65.0528903   5.8331673  59.9854913  58.8358903
   6.1051673  60.8114913  58.9028903   4.9701673  60.0604913  58.7398903
   5.7461673  60.1184913  58.8308903  13.8061673  57.1074913  73.4678903
  13.2811673  57.5664913  73.9918903  13.4451673  56.3124913  73.4618903
  13.6751673  57.0574913  73.5438903  12.2981673  60.6764913  73.5438903
  12.3711673  60.7804913  74.4068903  11.6641673  61.2344913  73.3228903
  12.2151673  60.7744913  73.6388903  14.5661673  60.9954913  71.9088903
  14.8851673  61.7814913  72.1118903  14.1961673  60.7254913  72.6518903
  14.5591673  61.0714913  72.0488903  13.8801673  67.4194913  57.4388903
  14.2141673  66.6134913  57.4738903  13.1251673  67.3474913  57.8688903
  13.8181673  67.2894913  57.5078903  14.3621673  59.2534913  63.0978903
  13.6171673  58.9304913  63.4158903  14.3641673  60.0794913  63.3778903
  14.2521673  59.3274913  63.1858903  17.2641673  61.5374913  74.6438903
  17.2121673  61.1964913  73.8428903  18.0011673  62.0044913  74.6218903
  17.3651673  61.5564913  74.5218903  16.8021673  65.2134913  70.8498903
  17.4301673  64.6644913  70.5938903  16.7411673  65.7784913  70.1878903
  16.8861673  65.2164913  70.7138903  11.2541673  65.2944913  56.8418903
  11.9381673  64.7804913  56.6728903  10.8371673  65.3404913  56.0768903
  11.2931673  65.2254913  56.7038903   5.9361673  66.4444913  68.1458903
   5.6381673  67.0364913  68.7128903   5.9911673  66.8864913  67.3968903
   5.9001673  66.5974913  68.1188903   3.9151673  65.3944913  71.5438903
   3.1091673  65.1044913  71.7108903   3.8261673  66.2624913  71.5498903
   3.7831673  65.4794913  71.5688903  13.2741673  55.5834913  70.5588903
  14.0181673  56.0354913  70.4958903  12.7081673  56.0534913  70.0898903
  13.3011673  55.7204913  70.4808903   8.4521673  62.8674913  67.6368903
   8.9281673  63.2414913  68.2648903   7.6291673  63.0014913  67.8958903
   8.4011673  62.9424913  67.7678903   5.1621673  58.4704913  70.3778903
   5.3231673  57.7264913  70.8048903   5.1171673  58.2214913  69.5428903
   5.1791673  58.3234913  70.3178903  14.5591673  53.5634913  68.2288903
  14.2791673  54.3884913  68.1848903  15.2751673  53.6164913  68.7248903
  14.6241673  53.6934913  68.2958903   6.9141673  54.2784913  70.2578903
   7.6191673  54.5984913  69.8558903   7.1551673  53.4714913  70.4848903
   7.0531673  54.2064913  70.2318903  10.2081673  65.1224913  73.2428903
  10.9651673  65.4084913  72.9168903   9.6611673  65.1744913  72.5648903
  10.2391673  65.1724913  73.0938903  15.9801673  59.8184913  57.0858903
  16.3581673  60.4954913  56.6858903  15.1381673  60.0424913  57.1168903
  15.9111673  59.9514913  57.0308903   7.4931673  63.2644913  56.1688903
   6.6881673  63.0874913  55.8838903   7.4601673  64.1154913  56.3608903
   7.3691673  63.3634913  56.1558903   3.4231673  59.3314913  66.3188903
   3.8631673  59.2284913  65.5728903   3.9681673  59.0184913  66.9238903
   3.5681673  59.2704913  66.2978903  11.4391673  58.4334913  71.9108903
  10.7911673  58.9034913  72.2588903  12.0041673  58.3444913  72.5698903
  11.4271673  58.4894913  72.0598903  11.1271673  59.9704913  68.2088903
  11.4291673  60.3904913  68.9118903  11.1631673  59.1304913  68.4408903
  11.1771673  59.9084913  68.3468903  13.6751673  59.4174913  60.4608903
  13.8821673  59.2164913  61.2848903  14.4311673  59.6854913  60.1188903
  13.8171673  59.4274913  60.5318903   6.9701673  54.3164913  66.3658903
   6.1441673  54.1674913  66.6028903   6.9301673  54.3514913  65.4948903
   6.8421673  54.2994913  66.2718903  14.6971673  55.5004913  61.9348903
  13.9831673  55.0294913  62.1058903  14.5351673  55.8414913  61.1488903
  14.5681673  55.4814913  61.8438903  15.1401673  63.4444913  60.3148903
  15.6161673  62.7154913  60.2668903  14.3191673  63.1584913  60.2388903
  15.0891673  63.2944913  60.2958903   8.6111673  65.3564913  71.1538903
   7.8161673  65.2924913  71.5048903   8.6821673  66.2034913  70.9588903
   8.5041673  65.4714913  71.1768903   2.5991673  57.4584913  59.6258903
   2.7251673  57.1294913  58.8278903   1.7871673  57.2094913  59.8248903
   2.4981673  57.3734913  59.5378903  11.3561673  64.6114913  62.6698903
  11.4321673  64.9524913  63.4688903  11.5251673  63.7644913  62.7908903
  11.3921673  64.5364913  62.8058903   8.8781673  63.8854913  62.2348903
   8.5801673  63.5704913  62.9918903   9.5731673  64.3584913  62.4698903
   8.9371673  63.9084913  62.3818903  17.2761673  60.6124913  72.0728903
  16.4211673  60.4904913  72.1988903  17.4291673  60.2174913  71.3098903
  17.1721673  60.5354913  71.9788903  11.7891673  61.2774913  70.6488903
  11.5341673  60.5584913  71.0708903  12.6101673  61.3934913  70.9188903
  11.8731673  61.1884913  70.7508903   9.7231673  62.4674913  73.8358903
  10.0461673  63.1534913  73.4038903   9.0191673  62.7904913  74.2378903
   9.6661673  62.6164913  73.8308903   9.5081673  65.9314913  67.6948903
   8.8141673  66.3334913  68.0378903  10.1851673  66.3644913  68.0338903
   9.5051673  66.0544913  67.7958903   2.5761673  59.4694913  70.0418903
   2.9511673  60.0884913  69.5548903   3.2501673  58.9954913  70.3268903
   2.7311673  59.4914913  70.0118903  15.9101673  60.5574913  59.7568903
  16.0131673  60.4994913  58.8928903  16.6511673  60.2254913  60.0748903
  16.0351673  60.5004913  59.6758903   2.9051673  55.3274913  71.7278903
   2.8241673  54.4834913  71.9338903   2.5911673  55.3714913  70.9148903
   2.8471673  55.2094913  71.6378903  15.0121673  60.7034913  69.1128903
  15.0101673  59.8404913  69.2368903  15.0791673  61.0274913  69.9198903
  15.0221673  60.6234913  69.2498903  10.8911673  55.5034913  72.8948903
  10.9831673  56.2154913  73.3888903  10.2541673  55.0584913  73.2918903
  10.8101673  55.5424913  73.0268903   9.8851673  55.6934913  63.7488903
   9.1851673  56.2114913  63.6928903   9.9231673  55.3134913  62.9648903
   9.7871673  55.7144913  63.6248903   5.1921673  67.7844913  57.2728903
   5.6331673  67.8644913  58.0208903   4.3871673  67.5684913  57.5308903
   5.1381673  67.7644913  57.4218903  13.4831673  56.2094913  66.5488903
  14.3381673  56.3084913  66.6938903  13.1141673  56.7624913  67.1138903
  13.5551673  56.3064913  66.6538903   4.5111673  62.4354913  70.9258903
   4.1151673  63.2094913  71.0008903   4.1051673  62.0624913  70.2498903
   4.3931673  62.4944913  70.8368903  13.7871673  61.4894913  65.0398903
  14.4531673  62.0304913  65.1998903  13.4421673  61.8004913  64.3008903
  13.8341673  61.6154913  64.9548903   2.5211673  66.8544913  57.8738903
   2.2771673  66.5474913  58.6538903   2.4881673  66.1514913  57.3578903
   2.4801673  66.7054913  57.9128903   5.3401673  65.0994913  56.6168903
   4.5221673  64.8314913  56.7568903   5.3121673  65.9514913  56.8018903
   5.2151673  65.1864913  56.6648903   4.9401673  55.4124913  68.3758903
   4.0761673  55.4964913  68.4558903   5.1601673  54.8984913  69.0448903
   4.8451673  55.3494913  68.4868903  16.9581673  54.0474913  69.7048903
  16.9061673  54.0034913  70.5748903  17.6451673  53.5444913  69.5148903
  17.0521673  53.9674913  69.8048903   9.0431673  56.1604913  66.7498903
   8.3061673  55.7064913  66.8628903   9.6141673  55.7584913  67.2728903
   9.0181673  56.0334913  66.8438903  11.7751673  67.0084913  68.5378903
  11.9811673  67.3094913  69.3298903  11.7141673  67.7304913  68.0528903
  11.7961673  67.1594913  68.5828903   6.5461673  60.4894913  71.9538903
   6.2241673  59.9134913  71.3838903   6.1871673  61.2444913  71.7078903
   6.4461673  60.5154913  71.8338903   7.3421673  53.7414913  56.5808903
   7.4201673  53.9884913  55.7478903   6.5991673  54.1184913  56.8388903
   7.2441673  53.8334913  56.4958903  16.5871673  65.6474913  67.9958903
  16.5551673  64.7854913  67.8608903  15.8941673  65.9494913  67.5618903
  16.4801673  65.5644913  67.9118903  11.2061673  54.3514913  66.0008903
  11.8761673  54.8954913  66.1278903  10.7031673  54.7754913  65.4278903
  11.2311673  54.4944913  65.9348903  10.5651673  60.1594913  63.4938903
  11.1161673  59.5524913  63.7938903  10.1401673  60.4224913  64.2088903
  10.5841673  60.1084913  63.6428903  12.5351673  61.9904913  60.0558903
  12.6031673  61.1404913  60.2368903  11.7121673  62.0764913  59.7778903
  12.4231673  61.8774913  60.0418903   6.4541673  62.8814913  58.9938903
   6.5541673  63.0204913  58.1388903   7.2721673  62.8214913  59.2898903
   6.5891673  62.8924913  58.9108903  15.8091673  63.3634913  73.2068903
  16.4431673  63.1934913  73.7808903  16.2261673  63.7664913  72.5548903
  15.9641673  63.3984913  73.1958903  11.6891673  67.2104913  58.7958903
  11.4381673  67.0824913  59.6218903  11.3721673  66.5154913  58.3748903
  11.6051673  67.0894913  58.8558903  16.4341673  57.9274913  73.9448903
  16.2381673  58.5714913  74.4998903  15.7121673  57.4374913  73.9368903
  16.2991673  57.9504913  74.0258903  16.3331673  58.8684913  66.9158903
  15.5001673  59.1184913  66.8438903  16.2771673  58.0284913  67.1448903
  16.2021673  58.7814913  66.9388903   5.5931673  55.8564913  72.1098903
   5.8271673  55.2804913  71.4968903   4.7511673  55.6754913  72.2508903
   5.5031673  55.7444913  72.0398903  13.2201673  63.4744913  74.5618903
  14.0911673  63.4384913  74.5258903  13.0011673  63.8944913  73.8298903
  13.3171673  63.5304913  74.4488903   8.5751673  65.4184913  58.2258903
   9.2921673  65.0714913  57.8698903   8.5411673  66.2184913  57.8778903
   8.6761673  65.4854913  58.1218903   9.9841673  54.0594913  42.4646493
   9.7391673  54.5474913  41.7846493  10.8471673  53.9864913  42.3646493
  10.0751673  54.1204913  42.3496493   9.7931673  60.9754913  47.1356493
   9.2691673  61.5714913  47.4986493  10.1901673  60.6074913  47.8196493
   9.7741673  61.0094913  47.2906493   2.5441673  64.1704913  37.7706493
   2.1521673  63.7994913  37.0846493   2.4641673  63.5724913  38.3996493
   2.4741673  64.0274913  37.7616493  12.4641673  62.0424913  43.8116493
  12.5441673  62.0464913  42.9426493  11.8801673  61.4104913  43.9606493
  12.3891673  61.9494913  43.7056493   6.4531673  55.1464913  41.6196493
   6.3831673  55.8234913  41.0736493   7.1941673  54.7584913  41.3706493
   6.5521673  55.1894913  41.5016493   6.1761673  65.3754913  53.9136493
   5.9401673  65.3724913  54.7536493   5.4281673  65.2274913  53.4896493
   6.0301673  65.3524913  53.9746493   5.5561673  57.9814913  48.3956493
   6.2341673  57.9994913  47.8466493   5.5111673  57.1454913  48.6406493
   5.6491673  57.8604913  48.3506493   3.0491673  60.4714913  43.0716493
   3.8661673  60.2844913  43.3146493   2.5721673  59.8574913  43.4676493
   3.0991673  60.3534913  43.1666493   7.2531673  66.4524913  45.6816493
   7.6011673  65.6534913  45.7116493   7.9181673  66.9564913  45.4266493
   7.4031673  66.4084913  45.6486493   7.3101673  65.9014913  41.8926493
   7.6411673  65.2574913  42.3786493   7.5501673  65.6904913  41.0816493
   7.3941673  65.7754913  41.8446493   9.2781673  60.0324913  53.2316493
   8.4301673  59.9334913  53.0536493   9.3071673  60.7774913  53.6856493
   9.1571673  60.1284913  53.2726493   3.6461673  55.5654913  42.3376493
   3.3501673  56.0664913  41.6876493   4.5131673  55.6434913  42.2806493
   3.7301673  55.6514913  42.2336493  13.8361673  52.9924913  52.3456493
  13.6781673  53.7614913  51.9636493  13.0641673  52.7724913  52.6896493
  13.6981673  53.0734913  52.3406493   6.6251673  54.7074913  44.5606493
   6.6981673  55.5674913  44.6896493   6.5871673  54.6324913  43.6926493
   6.6301673  54.8234913  44.4516493  11.2981673  57.6334913  36.8596493
  10.8481673  58.3144913  37.1666493  11.4121673  57.1294913  37.5626493
  11.2491673  57.6594913  37.0086493   5.2541673  67.6864913  41.4416493
   4.6751673  67.4114913  42.0336493   5.8781673  67.0774913  41.4666493
   5.2611673  67.5564913  41.5326493   2.5331673  54.9494913  46.5526493
   2.0121673  54.3214913  46.2446493   3.1241673  54.5124913  47.0236493
   2.5441673  54.7914913  46.5766493   5.8391673  57.0824913  55.8506493
   5.9561673  56.6284913  55.1146493   6.1271673  57.8804913  55.6476493
   5.8991673  57.1334913  55.7116493  16.6921673  57.6064913  43.1546493
  16.3461673  58.2844913  43.5806493  16.0561673  57.0084913  43.1706493
  16.5471673  57.6184913  43.2196493   1.7771673  66.9994913  45.3926493
   2.2001673  66.6434913  44.7186493   2.1011673  66.5774913  46.0846493
   1.8871673  66.8844913  45.3956493   8.2211673  54.3224913  54.0026493
   8.3991673  53.5134913  53.7276493   8.0781673  54.7634913  53.2636493
   8.2261673  54.2684913  53.8526493   8.8151673  59.2484913  42.7756493
   9.1021673  59.0164913  41.9856493   9.5471673  59.3274913  43.2446493
   8.9651673  59.2254913  42.7286493   9.5371673  59.5874913  37.8966493
   9.8181673  60.3754913  38.1456493   8.7611673  59.7524913  37.5336493
   9.4641673  59.7284913  37.8796493  11.2581673  67.5614913  52.9626493
  11.2241673  67.9434913  53.7466493  12.1121673  67.5194913  52.7916493
  11.3791673  67.6114913  53.0536493  11.9031673  55.6544913  38.7666493
  12.4431673  54.9724913  38.8426493  11.9651673  56.0524913  39.5406493
  11.9921673  55.6124913  38.8926493   9.1611673  58.0304913  40.0806493
   8.6531673  57.3684913  39.8266493   9.2131673  58.5344913  39.3706493
   9.0941673  58.0074913  39.9386493   9.1611673  54.9714913  39.9716493
   8.7061673  54.5694913  39.3456493   9.9341673  55.1264913  39.5966493
   9.2081673  54.9354913  39.8236493   7.7591673  57.3384913  44.4936493
   7.8331673  57.9064913  43.8356493   7.8801673  57.8304913  45.2036493
   7.7871673  57.4954913  44.5016493  12.9841673  67.1734913  42.9056493
  13.6851673  66.6914913  43.0946493  12.3241673  66.6044913  42.9506493
  12.9901673  67.0184913  42.9396493   2.3671673  53.1614913  42.8416493
   2.9031673  53.8494913  42.8316493   2.3701673  52.8874913  42.0136493
   2.4461673  53.2224913  42.7176493   5.3231673  63.5944913  46.8666493
   5.4951673  63.3844913  47.6956493   4.6681673  63.0604913  46.6506493
   5.2521673  63.4844913  46.9576493  11.5511673  57.5084913  50.3816493
  11.4561673  57.8274913  51.1876493  10.9581673  56.8694913  50.3436493
  11.4491673  57.4604913  50.4956493   6.0731673  63.5324913  49.4566493
   6.1261673  64.3794913  49.6586493   5.7881673  63.1624913  50.1936493
   6.0391673  63.6024913  49.5946493  12.2501673  64.2274913  48.5866493
  11.7361673  63.8154913  49.1576493  12.1241673  65.0714913  48.7676493
  12.1561673  64.2914913  48.6976493  12.8071673  53.4524913  43.2176493
  12.8561673  53.1344913  44.0286493  13.1301673  52.8084913  42.7246493
  12.8621673  53.3104913  43.2646493  15.2711673  57.6884913  51.5256493
  16.0431673  57.4634913  51.8626493  14.7961673  57.9054913  52.2256493
  15.3151673  57.6874913  51.6786493   2.8151673  56.9714913  44.4956493
   3.0871673  56.5414913  43.7876493   2.6391673  56.3354913  45.0666493
   2.8291673  56.8144913  44.4756493  15.5031673  64.6664913  38.7136493
  15.6221673  64.3794913  39.5286493  16.3101673  64.6874913  38.3836493
  15.6391673  64.6274913  38.7856493   2.6391673  64.3984913  44.0446493
   3.4901673  64.3184913  43.8716493   2.2821673  63.7164913  43.6326493
   2.7121673  64.2854913  43.9576493  13.3981673  61.2034913  38.2986493
  13.1781673  61.9344913  37.8766493  12.9501673  61.2544913  39.0456493
  13.2991673  61.3184913  38.3466493   5.0071673  64.4054913  42.2796493
   5.7201673  64.9004913  42.3696493   5.2291673  63.8384913  41.6536493
   5.1451673  64.3944913  42.2006493  17.5851673  56.0644913  37.7516493
  16.9231673  55.4964913  37.7746493  17.3921673  56.5764913  37.0716493
  17.4591673  56.0564913  37.6546493   6.8101673  59.7584913  55.6956493
   6.3261673  60.3354913  56.1376493   6.7821673  60.0534913  54.8746493
   6.7341673  59.8874913  55.6396493  17.9081673  60.4424913  50.3076493
  18.1231673  59.6424913  50.0316493  17.0581673  60.5024913  50.1186493
  17.8141673  60.3334913  50.2386493  15.5871673  55.6224913  40.0306493
  16.3331673  55.2154913  40.2296493  15.8501673  56.3374913  39.6056493
  15.7361673  55.6684913  39.9976493   3.6051673  65.8964913  47.3666493
   4.0721673  66.1854913  48.0446493   4.1771673  65.4184913  46.9126493
   3.7591673  65.8684913  47.3996493  12.0411673  57.9104913  45.1036493
  12.3851673  58.0624913  45.8906493  11.5881673  57.1724913  45.2166493
  12.0251673  57.8234913  45.2366493   6.5171673  57.1304913  39.5606493
   6.5151673  57.0134913  38.6956493   6.3361673  57.9784913  39.6526493
   6.4901673  57.2384913  39.4466493   4.2551673  67.0824913  44.1926493
   4.3811673  67.9254913  44.3796493   4.9231673  66.6834913  44.5886493
   4.3731673  67.1484913  44.2786493   2.3851673  60.5654913  54.0546493
   1.8491673  60.0594913  54.5226493   2.4051673  60.1754913  53.2746493
   2.3081673  60.4324913  54.0086493   2.8701673  59.9624913  39.1946493
   2.7421673  59.5144913  39.9326493   2.2881673  59.6204913  38.6426493
   2.7651673  59.8454913  39.2226493   3.0371673  61.7924913  45.7936493
   2.2561673  61.7334913  45.4106493   3.1091673  61.0404913  46.2306493
   2.9321673  61.6734913  45.8016493   3.4671673  61.5294913  49.2616493
   3.4921673  60.8544913  48.7106493   2.8211673  62.0254913  48.9496493
   3.3761673  61.5024913  49.1346493  13.3621673  59.2424913  47.6576493
  12.7001673  59.5704913  48.1206493  13.5491673  59.8764913  47.0886493
  13.2921673  59.3844913  47.6416493  10.0071673  55.1484913  51.0866493
  10.1561673  54.3234913  50.8436493  10.3861673  55.2034913  51.8706493
  10.0851673  55.0344913  51.1666493  11.5551673  57.2114913  41.1686493
  12.0451673  57.9284913  41.0916493  10.7651673  57.4724913  40.9056493
  11.5111673  57.3554913  41.1186493  12.8691673  65.0894913  53.0786493
  13.3531673  65.8074913  53.1766493  13.2631673  64.6624913  52.4276493
  12.9991673  65.1324913  52.9966493   7.1651673  67.9344913  54.2556493
   7.5191673  67.7564913  55.0326493   6.7291673  67.2054913  54.0566493
   7.1531673  67.8004913  54.3416493   8.1371673  58.6814913  46.8936493
   8.6171673  59.3804913  47.1016493   8.5101673  58.0344913  47.3446493
   8.2631673  58.6894913  46.9906493  10.3261673  61.8504913  39.1676493
  10.3181673  62.5724913  38.6776493   9.6871673  61.9854913  39.7446493
  10.2311673  61.9774913  39.1806493  15.2981673  65.7204913  43.1486493
  15.6541673  65.3704913  43.8636493  15.2901673  65.0594913  42.5786493
  15.3501673  65.5704913  43.1696493  11.3561673  65.6374913  46.3926493
  10.5591673  65.8614913  46.6666493  11.6141673  65.0434913  46.9776493
  11.2761673  65.5824913  46.5196493   4.9191673  54.1924913  38.8286493
   5.0161673  54.0854913  39.6896493   4.2111673  54.6984913  38.7636493
   4.8291673  54.2514913  38.9466493  14.6161673  63.6354913  51.2386493
  14.6711673  63.7604913  50.3766493  15.3691673  63.9554913  51.5406493
  14.7351673  63.7004913  51.1556493  15.6481673  53.9334913  54.2256493
  15.0111673  53.5334913  53.7836493  15.6741673  53.5024913  54.9836493
  15.5581673  53.8114913  54.2716493   2.0411673  62.4994913  40.0716493
   2.3651673  61.7204913  39.8496493   2.6871673  62.8674913  40.5266493
   2.1841673  62.4384913  40.1056493  10.3471673  63.4414913  50.8386493
  10.1921673  64.0514913  51.4426493  10.8811673  62.8834913  51.2446493
  10.4031673  63.4494913  50.9876493   8.7311673  61.8414913  41.4966493
   8.7901673  62.4914913  42.0756493   8.5421673  61.1454913  41.9876493
   8.7121673  61.8344913  41.6546493  13.9571673  66.1704913  47.3656493
  13.4781673  66.4684913  46.6996493  13.6011673  65.3944913  47.5436493
  13.8341673  66.0994913  47.2936493   3.2271673  56.3584913  38.0086493
   2.7161673  56.4114913  37.3026493   4.0111673  56.5984913  37.7126493
   3.2671673  56.4014913  37.8606493   7.9541673  63.8884913  45.9276493
   7.1071673  63.6944913  46.0086493   8.2781673  63.7234913  46.7206493
   7.8761673  63.8354913  46.0566493   5.0321673  58.7524913  44.9786493
   5.8781673  58.5624913  45.0766493   4.6621673  57.9754913  44.8406493
   5.1021673  58.6094913  44.9726493  14.8881673  63.1124913  48.4846493
  14.8811673  62.3364913  48.8826493  14.0471673  63.3464913  48.4776493
  14.7631673  63.0324913  48.5426493   4.3781673  61.5244913  37.1196493
   3.7681673  61.1194913  37.5936493   3.9921673  61.6424913  36.3466493
   4.2311673  61.4814913  37.0756493  16.1441673  63.1834913  45.9216493
  15.8581673  63.5844913  46.6416493  17.0041673  63.1214913  46.0486493
  16.2291673  63.2334913  46.0466493   5.8331673  59.9854913  39.8296493
   6.1051673  60.8114913  39.8966493   4.9701673  60.0604913  39.7336493
   5.7461673  60.1184913  39.8246493  13.8061673  57.1074913  54.4616493
  13.2811673  57.5664913  54.9856493  13.4451673  56.3124913  54.4556493
  13.6751673  57.0574913  54.5376493  12.2981673  60.6764913  54.5376493
  12.3711673  60.7804913  55.4006493  11.6641673  61.2344913  54.3166493
  12.2151673  60.7744913  54.6326493  14.5661673  60.9954913  52.9026493
  14.8851673  61.7814913  53.1056493  14.1961673  60.7254913  53.6456493
  14.5591673  61.0714913  53.0426493  13.8801673  67.4194913  38.4326493
  14.2141673  66.6134913  38.4676493  13.1251673  67.3474913  38.8626493
  13.8181673  67.2894913  38.5016493  14.3621673  59.2534913  44.0916493
  13.6171673  58.9304913  44.4096493  14.3641673  60.0794913  44.3716493
  14.2521673  59.3274913  44.1796493  17.2641673  61.5374913  55.6376493
  17.2121673  61.1964913  54.8366493  18.0011673  62.0044913  55.6156493
  17.3651673  61.5564913  55.5156493  16.8021673  65.2134913  51.8436493
  17.4301673  64.6644913  51.5876493  16.7411673  65.7784913  51.1816493
  16.8861673  65.2164913  51.7076493  11.2541673  65.2944913  37.8356493
  11.9381673  64.7804913  37.6666493  10.8371673  65.3404913  37.0706493
  11.2931673  65.2254913  37.6976493   5.9361673  66.4444913  49.1396493
   5.6381673  67.0364913  49.7066493   5.9911673  66.8864913  48.3906493
   5.9001673  66.5974913  49.1126493   3.9151673  65.3944913  52.5376493
   3.1091673  65.1044913  52.7046493   3.8261673  66.2624913  52.5436493
   3.7831673  65.4794913  52.5626493  13.2741673  55.5834913  51.5526493
  14.0181673  56.0354913  51.4896493  12.7081673  56.0534913  51.0836493
  13.3011673  55.7204913  51.4746493   8.4521673  62.8674913  48.6306493
   8.9281673  63.2414913  49.2586493   7.6291673  63.0014913  48.8896493
   8.4011673  62.9424913  48.7616493   5.1621673  58.4704913  51.3716493
   5.3231673  57.7264913  51.7986493   5.1171673  58.2214913  50.5366493
   5.1791673  58.3234913  51.3116493  14.5591673  53.5634913  49.2226493
  14.2791673  54.3884913  49.1786493  15.2751673  53.6164913  49.7186493
  14.6241673  53.6934913  49.2896493   6.9141673  54.2784913  51.2516493
   7.6191673  54.5984913  50.8496493   7.1551673  53.4714913  51.4786493
   7.0531673  54.2064913  51.2256493  10.2081673  65.1224913  54.2366493
  10.9651673  65.4084913  53.9106493   9.6611673  65.1744913  53.5586493
  10.2391673  65.1724913  54.0876493  15.9801673  59.8184913  38.0796493
  16.3581673  60.4954913  37.6796493  15.1381673  60.0424913  38.1106493
  15.9111673  59.9514913  38.0246493   7.4931673  63.2644913  37.1626493
   6.6881673  63.0874913  36.8776493   7.4601673  64.1154913  37.3546493
   7.3691673  63.3634913  37.1496493   3.4231673  59.3314913  47.3126493
   3.8631673  59.2284913  46.5666493   3.9681673  59.0184913  47.9176493
   3.5681673  59.2704913  47.2916493  11.4391673  58.4334913  52.9046493
  10.7911673  58.9034913  53.2526493  12.0041673  58.3444913  53.5636493
  11.4271673  58.4894913  53.0536493  11.1271673  59.9704913  49.2026493
  11.4291673  60.3904913  49.9056493  11.1631673  59.1304913  49.4346493
  11.1771673  59.9084913  49.3406493  13.6751673  59.4174913  41.4546493
  13.8821673  59.2164913  42.2786493  14.4311673  59.6854913  41.1126493
  13.8171673  59.4274913  41.5256493   6.9701673  54.3164913  47.3596493
   6.1441673  54.1674913  47.5966493   6.9301673  54.3514913  46.4886493
   6.8421673  54.2994913  47.2656493  14.6971673  55.5004913  42.9286493
  13.9831673  55.0294913  43.0996493  14.5351673  55.8414913  42.1426493
  14.5681673  55.4814913  42.8376493  15.1401673  63.4444913  41.3086493
  15.6161673  62.7154913  41.2606493  14.3191673  63.1584913  41.2326493
  15.0891673  63.2944913  41.2896493   8.6111673  65.3564913  52.1476493
   7.8161673  65.2924913  52.4986493   8.6821673  66.2034913  51.9526493
   8.5041673  65.4714913  52.1706493   2.5991673  57.4584913  40.6196493
   2.7251673  57.1294913  39.8216493   1.7871673  57.2094913  40.8186493
   2.4981673  57.3734913  40.5316493  11.3561673  64.6114913  43.6636493
  11.4321673  64.9524913  44.4626493  11.5251673  63.7644913  43.7846493
  11.3921673  64.5364913  43.7996493   8.8781673  63.8854913  43.2286493
   8.5801673  63.5704913  43.9856493   9.5731673  64.3584913  43.4636493
   8.9371673  63.9084913  43.3756493  17.2761673  60.6124913  53.0666493
  16.4211673  60.4904913  53.1926493  17.4291673  60.2174913  52.3036493
  17.1721673  60.5354913  52.9726493  11.7891673  61.2774913  51.6426493
  11.5341673  60.5584913  52.0646493  12.6101673  61.3934913  51.9126493
  11.8731673  61.1884913  51.7446493   9.7231673  62.4674913  54.8296493
  10.0461673  63.1534913  54.3976493   9.0191673  62.7904913  55.2316493
   9.6661673  62.6164913  54.8246493   9.5081673  65.9314913  48.6886493
   8.8141673  66.3334913  49.0316493  10.1851673  66.3644913  49.0276493
   9.5051673  66.0544913  48.7896493   2.5761673  59.4694913  51.0356493
   2.9511673  60.0884913  50.5486493   3.2501673  58.9954913  51.3206493
   2.7311673  59.4914913  51.0056493  15.9101673  60.5574913  40.7506493
  16.0131673  60.4994913  39.8866493  16.6511673  60.2254913  41.0686493
  16.0351673  60.5004913  40.6696493   2.9051673  55.3274913  52.7216493
   2.8241673  54.4834913  52.9276493   2.5911673  55.3714913  51.9086493
   2.8471673  55.2094913  52.6316493  15.0121673  60.7034913  50.1066493
  15.0101673  59.8404913  50.2306493  15.0791673  61.0274913  50.9136493
  15.0221673  60.6234913  50.2436493  10.8911673  55.5034913  53.8886493
  10.9831673  56.2154913  54.3826493  10.2541673  55.0584913  54.2856493
  10.8101673  55.5424913  54.0206493   9.8851673  55.6934913  44.7426493
   9.1851673  56.2114913  44.6866493   9.9231673  55.3134913  43.9586493
   9.7871673  55.7144913  44.6186493   5.1921673  67.7844913  38.2666493
   5.6331673  67.8644913  39.0146493   4.3871673  67.5684913  38.5246493
   5.1381673  67.7644913  38.4156493  13.4831673  56.2094913  47.5426493
  14.3381673  56.3084913  47.6876493  13.1141673  56.7624913  48.1076493
  13.5551673  56.3064913  47.6476493   4.5111673  62.4354913  51.9196493
   4.1151673  63.2094913  51.9946493   4.1051673  62.0624913  51.2436493
   4.3931673  62.4944913  51.8306493  13.7871673  61.4894913  46.0336493
  14.4531673  62.0304913  46.1936493  13.4421673  61.8004913  45.2946493
  13.8341673  61.6154913  45.9486493   2.5211673  66.8544913  38.8676493
   2.2771673  66.5474913  39.6476493   2.4881673  66.1514913  38.3516493
   2.4801673  66.7054913  38.9066493   5.3401673  65.0994913  37.6106493
   4.5221673  64.8314913  37.7506493   5.3121673  65.9514913  37.7956493
   5.2151673  65.1864913  37.6586493   4.9401673  55.4124913  49.3696493
   4.0761673  55.4964913  49.4496493   5.1601673  54.8984913  50.0386493
   4.8451673  55.3494913  49.4806493  16.9581673  54.0474913  50.6986493
  16.9061673  54.0034913  51.5686493  17.6451673  53.5444913  50.5086493
  17.0521673  53.9674913  50.7986493   9.0431673  56.1604913  47.7436493
   8.3061673  55.7064913  47.8566493   9.6141673  55.7584913  48.2666493
   9.0181673  56.0334913  47.8376493  11.7751673  67.0084913  49.5316493
  11.9811673  67.3094913  50.3236493  11.7141673  67.7304913  49.0466493
  11.7961673  67.1594913  49.5766493   6.5461673  60.4894913  52.9476493
   6.2241673  59.9134913  52.3776493   6.1871673  61.2444913  52.7016493
   6.4461673  60.5154913  52.8276493   7.3421673  53.7414913  37.5746493
   7.4201673  53.9884913  36.7416493   6.5991673  54.1184913  37.8326493
   7.2441673  53.8334913  37.4896493  16.5871673  65.6474913  48.9896493
  16.5551673  64.7854913  48.8546493  15.8941673  65.9494913  48.5556493
  16.4801673  65.5644913  48.9056493  11.2061673  54.3514913  46.9946493
  11.8761673  54.8954913  47.1216493  10.7031673  54.7754913  46.4216493
  11.2311673  54.4944913  46.9286493  10.5651673  60.1594913  44.4876493
  11.1161673  59.5524913  44.7876493  10.1401673  60.4224913  45.2026493
  10.5841673  60.1084913  44.6366493  12.5351673  61.9904913  41.0496493
  12.6031673  61.1404913  41.2306493  11.7121673  62.0764913  40.7716493
  12.4231673  61.8774913  41.0356493   6.4541673  62.8814913  39.9876493
   6.5541673  63.0204913  39.1326493   7.2721673  62.8214913  40.2836493
   6.5891673  62.8924913  39.9046493  15.8091673  63.3634913  54.2006493
  16.4431673  63.1934913  54.7746493  16.2261673  63.7664913  53.5486493
  15.9641673  63.3984913  54.1896493  11.6891673  67.2104913  39.7896493
  11.4381673  67.0824913  40.6156493  11.3721673  66.5154913  39.3686493
  11.6051673  67.0894913  39.8496493  16.4341673  57.9274913  54.9386493
  16.2381673  58.5714913  55.4936493  15.7121673  57.4374913  54.9306493
  16.2991673  57.9504913  55.0196493  16.3331673  58.8684913  47.9096493
  15.5001673  59.1184913  47.8376493  16.2771673  58.0284913  48.1386493
  16.2021673  58.7814913  47.9326493   5.5931673  55.8564913  53.1036493
   5.8271673  55.2804913  52.4906493   4.7511673  55.6754913  53.2446493
   5.5031673  55.7444913  53.0336493  13.2201673  63.4744913  55.5556493
  14.0911673  63.4384913  55.5196493  13.0011673  63.8944913  54.8236493
  13.3171673  63.5304913  55.4426493   8.5751673  65.4184913  39.2196493
   9.2921673  65.0714913  38.8636493   8.5411673  66.2184913  38.8716493
   8.6761673  65.4854913  39.1156493   9.9841673  54.0594913  23.4584083
   9.7391673  54.5474913  22.7784083  10.8471673  53.9864913  23.3584083
  10.0751673  54.1204913  23.3434083   9.7931673  60.9754913  28.1294083
   9.2691673  61.5714913  28.4924083  10.1901673  60.6074913  28.8134083
   9.7741673  61.0094913  28.2844083   2.5441673  64.1704913  18.7644083
   2.1521673  63.7994913  18.0784083   2.4641673  63.5724913  19.3934083
   2.4741673  64.0274913  18.7554083  12.4641673  62.0424913  24.8054083
  12.5441673  62.0464913  23.9364083  11.8801673  61.4104913  24.9544083
  12.3891673  61.9494913  24.6994083   6.4531673  55.1464913  22.6134083
   6.3831673  55.8234913  22.0674083   7.1941673  54.7584913  22.3644083
   6.5521673  55.1894913  22.4954083   6.1761673  65.3754913  34.9074083
   5.9401673  65.3724913  35.7474083   5.4281673  65.2274913  34.4834083
   6.0301673  65.3524913  34.9684083   5.5561673  57.9814913  29.3894083
   6.2341673  57.9994913  28.8404083   5.5111673  57.1454913  29.6344083
   5.6491673  57.8604913  29.3444083   3.0491673  60.4714913  24.0654083
   3.8661673  60.2844913  24.3084083   2.5721673  59.8574913  24.4614083
   3.0991673  60.3534913  24.1604083   7.2531673  66.4524913  26.6754083
   7.6011673  65.6534913  26.7054083   7.9181673  66.9564913  26.4204083
   7.4031673  66.4084913  26.6424083   7.3101673  65.9014913  22.8864083
   7.6411673  65.2574913  23.3724083   7.5501673  65.6904913  22.0754083
   7.3941673  65.7754913  22.8384083   9.2781673  60.0324913  34.2254083
   8.4301673  59.9334913  34.0474083   9.3071673  60.7774913  34.6794083
   9.1571673  60.1284913  34.2664083   3.6461673  55.5654913  23.3314083
   3.3501673  56.0664913  22.6814083   4.5131673  55.6434913  23.2744083
   3.7301673  55.6514913  23.2274083  13.8361673  52.9924913  33.3394083
  13.6781673  53.7614913  32.9574083  13.0641673  52.7724913  33.6834083
  13.6981673  53.0734913  33.3344083   6.6251673  54.7074913  25.5544083
   6.6981673  55.5674913  25.6834083   6.5871673  54.6324913  24.6864083
   6.6301673  54.8234913  25.4454083  11.2981673  57.6334913  17.8534083
  10.8481673  58.3144913  18.1604083  11.4121673  57.1294913  18.5564083
  11.2491673  57.6594913  18.0024083   5.2541673  67.6864913  22.4354083
   4.6751673  67.4114913  23.0274083   5.8781673  67.0774913  22.4604083
   5.2611673  67.5564913  22.5264083   2.5331673  54.9494913  27.5464083
   2.0121673  54.3214913  27.2384083   3.1241673  54.5124913  28.0174083
   2.5441673  54.7914913  27.5704083   5.8391673  57.0824913  36.8444083
   5.9561673  56.6284913  36.1084083   6.1271673  57.8804913  36.6414083
   5.8991673  57.1334913  36.7054083  16.6921673  57.6064913  24.1484083
  16.3461673  58.2844913  24.5744083  16.0561673  57.0084913  24.1644083
  16.5471673  57.6184913  24.2134083   1.7771673  66.9994913  26.3864083
   2.2001673  66.6434913  25.7124083   2.1011673  66.5774913  27.0784083
   1.8871673  66.8844913  26.3894083   8.2211673  54.3224913  34.9964083
   8.3991673  53.5134913  34.7214083   8.0781673  54.7634913  34.2574083
   8.2261673  54.2684913  34.8464083   8.8151673  59.2484913  23.7694083
   9.1021673  59.0164913  22.9794083   9.5471673  59.3274913  24.2384083
   8.9651673  59.2254913  23.7224083   9.5371673  59.5874913  18.8904083
   9.8181673  60.3754913  19.1394083   8.7611673  59.7524913  18.5274083
   9.4641673  59.7284913  18.8734083  16.3671673  55.9294913  29.5174083
  17.1241673  56.0014913  29.0894083  16.4301673  55.1564913  29.9164083
  16.4881673  55.8264913  29.5124083  11.2581673  67.5614913  33.9564083
  11.2241673  67.9434913  34.7404083  12.1121673  67.5194913  33.7854083
  11.3791673  67.6114913  34.0474083  11.9031673  55.6544913  19.7604083
  12.4431673  54.9724913  19.8364083  11.9651673  56.0524913  20.5344083
  11.9921673  55.6124913  19.8864083   9.1611673  58.0304913  21.0744083
   8.6531673  57.3684913  20.8204083   9.2131673  58.5344913  20.3644083
   9.0941673  58.0074913  20.9324083   9.1611673  54.9714913  20.9654083
   8.7061673  54.5694913  20.3394083   9.9341673  55.1264913  20.5904083
   9.2081673  54.9354913  20.8174083   7.7591673  57.3384913  25.4874083
   7.8331673  57.9064913  24.8294083   7.8801673  57.8304913  26.1974083
   7.7871673  57.4954913  25.4954083  12.9841673  67.1734913  23.8994083
  13.6851673  66.6914913  24.0884083  12.3241673  66.6044913  23.9444083
  12.9901673  67.0184913  23.9334083   2.3671673  53.1614913  23.8354083
   2.9031673  53.8494913  23.8254083   2.3701673  52.8874913  23.0074083
   2.4461673  53.2224913  23.7114083   5.3231673  63.5944913  27.8604083
   5.4951673  63.3844913  28.6894083   4.6681673  63.0604913  27.6444083
   5.2521673  63.4844913  27.9514083  11.5511673  57.5084913  31.3754083
  11.4561673  57.8274913  32.1814083  10.9581673  56.8694913  31.3374083
  11.4491673  57.4604913  31.4894083   6.0731673  63.5324913  30.4504083
   6.1261673  64.3794913  30.6524083   5.7881673  63.1624913  31.1874083
   6.0391673  63.6024913  30.5884083  12.2501673  64.2274913  29.5804083
  11.7361673  63.8154913  30.1514083  12.1241673  65.0714913  29.7614083
  12.1561673  64.2914913  29.6914083  12.8071673  53.4524913  24.2114083
  12.8561673  53.1344913  25.0224083  13.1301673  52.8084913  23.7184083
  12.8621673  53.3104913  24.2584083  15.2711673  57.6884913  32.5194083
  16.0431673  57.4634913  32.8564083  14.7961673  57.9054913  33.2194083
  15.3151673  57.6874913  32.6724083   2.8151673  56.9714913  25.4894083
   3.0871673  56.5414913  24.7814083   2.6391673  56.3354913  26.0604083
   2.8291673  56.8144913  25.4694083  15.5031673  64.6664913  19.7074083
  15.6221673  64.3794913  20.5224083  16.3101673  64.6874913  19.3774083
  15.6391673  64.6274913  19.7794083   2.6391673  64.3984913  25.0384083
   3.4901673  64.3184913  24.8654083   2.2821673  63.7164913  24.6264083
   2.7121673  64.2854913  24.9514083  13.3981673  61.2034913  19.2924083
  13.1781673  61.9344913  18.8704083  12.9501673  61.2544913  20.0394083
  13.2991673  61.3184913  19.3404083   5.0071673  64.4054913  23.2734083
   5.7201673  64.9004913  23.3634083   5.2291673  63.8384913  22.6474083
   5.1451673  64.3944913  23.1944083  17.5851673  56.0644913  18.7454083
  16.9231673  55.4964913  18.7684083  17.3921673  56.5764913  18.0654083
  17.4591673  56.0564913  18.6484083   6.8101673  59.7584913  36.6894083
   6.3261673  60.3354913  37.1314083   6.7821673  60.0534913  35.8684083
   6.7341673  59.8874913  36.6334083  17.9081673  60.4424913  31.3014083
  18.1231673  59.6424913  31.0254083  17.0581673  60.5024913  31.1124083
  17.8141673  60.3334913  31.2324083  15.5871673  55.6224913  21.0244083
  16.3331673  55.2154913  21.2234083  15.8501673  56.3374913  20.5994083
  15.7361673  55.6684913  20.9914083   3.6051673  65.8964913  28.3604083
   4.0721673  66.1854913  29.0384083   4.1771673  65.4184913  27.9064083
   3.7591673  65.8684913  28.3934083  12.0411673  57.9104913  26.0974083
  12.3851673  58.0624913  26.8844083  11.5881673  57.1724913  26.2104083
  12.0251673  57.8234913  26.2304083   6.5171673  57.1304913  20.5544083
   6.5151673  57.0134913  19.6894083   6.3361673  57.9784913  20.6464083
   6.4901673  57.2384913  20.4404083   4.2551673  67.0824913  25.1864083
   4.3811673  67.9254913  25.3734083   4.9231673  66.6834913  25.5824083
   4.3731673  67.1484913  25.2724083   2.3851673  60.5654913  35.0484083
   1.8491673  60.0594913  35.5164083   2.4051673  60.1754913  34.2684083
   2.3081673  60.4324913  35.0024083   2.8701673  59.9624913  20.1884083
   2.7421673  59.5144913  20.9264083   2.2881673  59.6204913  19.6364083
   2.7651673  59.8454913  20.2164083   3.0371673  61.7924913  26.7874083
   2.2561673  61.7334913  26.4044083   3.1091673  61.0404913  27.2244083
   2.9321673  61.6734913  26.7954083   3.4671673  61.5294913  30.2554083
   3.4921673  60.8544913  29.7044083   2.8211673  62.0254913  29.9434083
   3.3761673  61.5024913  30.1284083  13.3621673  59.2424913  28.6514083
  12.7001673  59.5704913  29.1144083  13.5491673  59.8764913  28.0824083
  13.2921673  59.3844913  28.6354083  10.0071673  55.1484913  32.0804083
  10.1561673  54.3234913  31.8374083  10.3861673  55.2034913  32.8644083
  10.0851673  55.0344913  32.1604083  11.5551673  57.2114913  22.1624083
  12.0451673  57.9284913  22.0854083  10.7651673  57.4724913  21.8994083
  11.5111673  57.3554913  22.1124083  12.8691673  65.0894913  34.0724083
  13.3531673  65.8074913  34.1704083  13.2631673  64.6624913  33.4214083
  12.9991673  65.1324913  33.9904083   7.1651673  67.9344913  35.2494083
   7.5191673  67.7564913  36.0264083   6.7291673  67.2054913  35.0504083
   7.1531673  67.8004913  35.3354083   8.1371673  58.6814913  27.8874083
   8.6171673  59.3804913  28.0954083   8.5101673  58.0344913  28.3384083
   8.2631673  58.6894913  27.9844083  10.3261673  61.8504913  20.1614083
  10.3181673  62.5724913  19.6714083   9.6871673  61.9854913  20.7384083
  10.2311673  61.9774913  20.1744083  15.2981673  65.7204913  24.1424083
  15.6541673  65.3704913  24.8574083  15.2901673  65.0594913  23.5724083
  15.3501673  65.5704913  24.1634083  11.3561673  65.6374913  27.3864083
  10.5591673  65.8614913  27.6604083  11.6141673  65.0434913  27.9714083
  11.2761673  65.5824913  27.5134083   4.9191673  54.1924913  19.8224083
   5.0161673  54.0854913  20.6834083   4.2111673  54.6984913  19.7574083
   4.8291673  54.2514913  19.9404083  14.6161673  63.6354913  32.2324083
  14.6711673  63.7604913  31.3704083  15.3691673  63.9554913  32.5344083
  14.7351673  63.7004913  32.1494083  15.6481673  53.9334913  35.2194083
  15.0111673  53.5334913  34.7774083  15.6741673  53.5024913  35.9774083
  15.5581673  53.8114913  35.2654083   2.0411673  62.4994913  21.0654083
   2.3651673  61.7204913  20.8434083   2.6871673  62.8674913  21.5204083
   2.1841673  62.4384913  21.0994083  10.3471673  63.4414913  31.8324083
  10.1921673  64.0514913  32.4364083  10.8811673  62.8834913  32.2384083
  10.4031673  63.4494913  31.9814083   8.7311673  61.8414913  22.4904083
   8.7901673  62.4914913  23.0694083   8.5421673  61.1454913  22.9814083
   8.7121673  61.8344913  22.6484083  13.9571673  66.1704913  28.3594083
  13.4781673  66.4684913  27.6934083  13.6011673  65.3944913  28.5374083
  13.8341673  66.0994913  28.2874083   3.2271673  56.3584913  19.0024083
   2.7161673  56.4114913  18.2964083   4.0111673  56.5984913  18.7064083
   3.2671673  56.4014913  18.8544083   7.9541673  63.8884913  26.9214083
   7.1071673  63.6944913  27.0024083   8.2781673  63.7234913  27.7144083
   7.8761673  63.8354913  27.0504083   5.0321673  58.7524913  25.9724083
   5.8781673  58.5624913  26.0704083   4.6621673  57.9754913  25.8344083
   5.1021673  58.6094913  25.9664083  14.8881673  63.1124913  29.4784083
  14.8811673  62.3364913  29.8764083  14.0471673  63.3464913  29.4714083
  14.7631673  63.0324913  29.5364083   4.3781673  61.5244913  18.1134083
   3.7681673  61.1194913  18.5874083   3.9921673  61.6424913  17.3404083
   4.2311673  61.4814913  18.0694083  16.1441673  63.1834913  26.9154083
  15.8581673  63.5844913  27.6354083  17.0041673  63.1214913  27.0424083
  16.2291673  63.2334913  27.0404083   5.8331673  59.9854913  20.8234083
   6.1051673  60.8114913  20.8904083   4.9701673  60.0604913  20.7274083
   5.7461673  60.1184913  20.8184083  13.8061673  57.1074913  35.4554083
  13.2811673  57.5664913  35.9794083  13.4451673  56.3124913  35.4494083
  13.6751673  57.0574913  35.5314083  12.2981673  60.6764913  35.5314083
  12.3711673  60.7804913  36.3944083  11.6641673  61.2344913  35.3104083
  12.2151673  60.7744913  35.6264083  14.5661673  60.9954913  33.8964083
  14.8851673  61.7814913  34.0994083  14.1961673  60.7254913  34.6394083
  14.5591673  61.0714913  34.0364083  13.8801673  67.4194913  19.4264083
  14.2141673  66.6134913  19.4614083  13.1251673  67.3474913  19.8564083
  13.8181673  67.2894913  19.4954083  14.3621673  59.2534913  25.0854083
  13.6171673  58.9304913  25.4034083  14.3641673  60.0794913  25.3654083
  14.2521673  59.3274913  25.1734083  17.2641673  61.5374913  36.6314083
  17.2121673  61.1964913  35.8304083  18.0011673  62.0044913  36.6094083
  17.3651673  61.5564913  36.5094083  16.8021673  65.2134913  32.8374083
  17.4301673  64.6644913  32.5814083  16.7411673  65.7784913  32.1754083
  16.8861673  65.2164913  32.7014083  11.2541673  65.2944913  18.8294083
  11.9381673  64.7804913  18.6604083  10.8371673  65.3404913  18.0644083
  11.2931673  65.2254913  18.6914083   5.9361673  66.4444913  30.1334083
   5.6381673  67.0364913  30.7004083   5.9911673  66.8864913  29.3844083
   5.9001673  66.5974913  30.1064083   3.9151673  65.3944913  33.5314083
   3.1091673  65.1044913  33.6984083   3.8261673  66.2624913  33.5374083
   3.7831673  65.4794913  33.5564083  13.2741673  55.5834913  32.5464083
  14.0181673  56.0354913  32.4834083  12.7081673  56.0534913  32.0774083
  13.3011673  55.7204913  32.4684083   8.4521673  62.8674913  29.6244083
   8.9281673  63.2414913  30.2524083   7.6291673  63.0014913  29.8834083
   8.4011673  62.9424913  29.7554083   5.1621673  58.4704913  32.3654083
   5.3231673  57.7264913  32.7924083   5.1171673  58.2214913  31.5304083
   5.1791673  58.3234913  32.3054083  14.5591673  53.5634913  30.2164083
  14.2791673  54.3884913  30.1724083  15.2751673  53.6164913  30.7124083
  14.6241673  53.6934913  30.2834083   6.9141673  54.2784913  32.2454083
   7.6191673  54.5984913  31.8434083   7.1551673  53.4714913  32.4724083
   7.0531673  54.2064913  32.2194083  10.2081673  65.1224913  35.2304083
  10.9651673  65.4084913  34.9044083   9.6611673  65.1744913  34.5524083
  10.2391673  65.1724913  35.0814083  15.9801673  59.8184913  19.0734083
  16.3581673  60.4954913  18.6734083  15.1381673  60.0424913  19.1044083
  15.9111673  59.9514913  19.0184083   7.4931673  63.2644913  18.1564083
   6.6881673  63.0874913  17.8714083   7.4601673  64.1154913  18.3484083
   7.3691673  63.3634913  18.1434083   3.4231673  59.3314913  28.3064083
   3.8631673  59.2284913  27.5604083   3.9681673  59.0184913  28.9114083
   3.5681673  59.2704913  28.2854083  11.4391673  58.4334913  33.8984083
  10.7911673  58.9034913  34.2464083  12.0041673  58.3444913  34.5574083
  11.4271673  58.4894913  34.0474083  11.1271673  59.9704913  30.1964083
  11.4291673  60.3904913  30.8994083  11.1631673  59.1304913  30.4284083
  11.1771673  59.9084913  30.3344083  13.6751673  59.4174913  22.4484083
  13.8821673  59.2164913  23.2724083  14.4311673  59.6854913  22.1064083
  13.8171673  59.4274913  22.5194083   6.9701673  54.3164913  28.3534083
   6.1441673  54.1674913  28.5904083   6.9301673  54.3514913  27.4824083
   6.8421673  54.2994913  28.2594083  14.6971673  55.5004913  23.9224083
  13.9831673  55.0294913  24.0934083  14.5351673  55.8414913  23.1364083
  14.5681673  55.4814913  23.8314083  15.1401673  63.4444913  22.3024083
  15.6161673  62.7154913  22.2544083  14.3191673  63.1584913  22.2264083
  15.0891673  63.2944913  22.2834083   8.6111673  65.3564913  33.1414083
   7.8161673  65.2924913  33.4924083   8.6821673  66.2034913  32.9464083
   8.5041673  65.4714913  33.1644083   2.5991673  57.4584913  21.6134083
   2.7251673  57.1294913  20.8154083   1.7871673  57.2094913  21.8124083
   2.4981673  57.3734913  21.5254083  11.3561673  64.6114913  24.6574083
  11.4321673  64.9524913  25.4564083  11.5251673  63.7644913  24.7784083
  11.3921673  64.5364913  24.7934083   8.8781673  63.8854913  24.2224083
   8.5801673  63.5704913  24.9794083   9.5731673  64.3584913  24.4574083
   8.9371673  63.9084913  24.3694083  17.2761673  60.6124913  34.0604083
  16.4211673  60.4904913  34.1864083  17.4291673  60.2174913  33.2974083
  17.1721673  60.5354913  33.9664083  11.7891673  61.2774913  32.6364083
  11.5341673  60.5584913  33.0584083  12.6101673  61.3934913  32.9064083
  11.8731673  61.1884913  32.7384083   9.7231673  62.4674913  35.8234083
  10.0461673  63.1534913  35.3914083   9.0191673  62.7904913  36.2254083
   9.6661673  62.6164913  35.8184083   9.5081673  65.9314913  29.6824083
   8.8141673  66.3334913  30.0254083  10.1851673  66.3644913  30.0214083
   9.5051673  66.0544913  29.7834083   2.5761673  59.4694913  32.0294083
   2.9511673  60.0884913  31.5424083   3.2501673  58.9954913  32.3144083
   2.7311673  59.4914913  31.9994083  15.9101673  60.5574913  21.7444083
  16.0131673  60.4994913  20.8804083  16.6511673  60.2254913  22.0624083
  16.0351673  60.5004913  21.6634083   2.9051673  55.3274913  33.7154083
   2.8241673  54.4834913  33.9214083   2.5911673  55.3714913  32.9024083
   2.8471673  55.2094913  33.6254083  15.0121673  60.7034913  31.1004083
  15.0101673  59.8404913  31.2244083  15.0791673  61.0274913  31.9074083
  15.0221673  60.6234913  31.2374083  10.8911673  55.5034913  34.8824083
  10.9831673  56.2154913  35.3764083  10.2541673  55.0584913  35.2794083
  10.8101673  55.5424913  35.0144083   9.8851673  55.6934913  25.7364083
   9.1851673  56.2114913  25.6804083   9.9231673  55.3134913  24.9524083
   9.7871673  55.7144913  25.6124083   5.1921673  67.7844913  19.2604083
   5.6331673  67.8644913  20.0084083   4.3871673  67.5684913  19.5184083
   5.1381673  67.7644913  19.4094083  13.4831673  56.2094913  28.5364083
  14.3381673  56.3084913  28.6814083  13.1141673  56.7624913  29.1014083
  13.5551673  56.3064913  28.6414083   4.5111673  62.4354913  32.9134083
   4.1151673  63.2094913  32.9884083   4.1051673  62.0624913  32.2374083
   4.3931673  62.4944913  32.8244083  13.7871673  61.4894913  27.0274083
  14.4531673  62.0304913  27.1874083  13.4421673  61.8004913  26.2884083
  13.8341673  61.6154913  26.9424083   2.5211673  66.8544913  19.8614083
   2.2771673  66.5474913  20.6414083   2.4881673  66.1514913  19.3454083
   2.4801673  66.7054913  19.9004083   5.3401673  65.0994913  18.6044083
   4.5221673  64.8314913  18.7444083   5.3121673  65.9514913  18.7894083
   5.2151673  65.1864913  18.6524083   4.9401673  55.4124913  30.3634083
   4.0761673  55.4964913  30.4434083   5.1601673  54.8984913  31.0324083
   4.8451673  55.3494913  30.4744083  16.9581673  54.0474913  31.6924083
  16.9061673  54.0034913  32.5624083  17.6451673  53.5444913  31.5024083
  17.0521673  53.9674913  31.7924083   9.0431673  56.1604913  28.7374083
   8.3061673  55.7064913  28.8504083   9.6141673  55.7584913  29.2604083
   9.0181673  56.0334913  28.8314083  11.7751673  67.0084913  30.5254083
  11.9811673  67.3094913  31.3174083  11.7141673  67.7304913  30.0404083
  11.7961673  67.1594913  30.5704083   6.5461673  60.4894913  33.9414083
   6.2241673  59.9134913  33.3714083   6.1871673  61.2444913  33.6954083
   6.4461673  60.5154913  33.8214083   7.3421673  53.7414913  18.5684083
   7.4201673  53.9884913  17.7354083   6.5991673  54.1184913  18.8264083
   7.2441673  53.8334913  18.4834083  16.5871673  65.6474913  29.9834083
  16.5551673  64.7854913  29.8484083  15.8941673  65.9494913  29.5494083
  16.4801673  65.5644913  29.8994083  11.2061673  54.3514913  27.9884083
  11.8761673  54.8954913  28.1154083  10.7031673  54.7754913  27.4154083
  11.2311673  54.4944913  27.9224083  10.5651673  60.1594913  25.4814083
  11.1161673  59.5524913  25.7814083  10.1401673  60.4224913  26.1964083
  10.5841673  60.1084913  25.6304083  12.5351673  61.9904913  22.0434083
  12.6031673  61.1404913  22.2244083  11.7121673  62.0764913  21.7654083
  12.4231673  61.8774913  22.0294083   6.4541673  62.8814913  20.9814083
   6.5541673  63.0204913  20.1264083   7.2721673  62.8214913  21.2774083
   6.5891673  62.8924913  20.8984083  15.8091673  63.3634913  35.1944083
  16.4431673  63.1934913  35.7684083  16.2261673  63.7664913  34.5424083
  15.9641673  63.3984913  35.1834083  11.6891673  67.2104913  20.7834083
  11.4381673  67.0824913  21.6094083  11.3721673  66.5154913  20.3624083
  11.6051673  67.0894913  20.8434083  16.4341673  57.9274913  35.9324083
  16.2381673  58.5714913  36.4874083  15.7121673  57.4374913  35.9244083
  16.2991673  57.9504913  36.0134083  16.3331673  58.8684913  28.9034083
  15.5001673  59.1184913  28.8314083  16.2771673  58.0284913  29.1324083
  16.2021673  58.7814913  28.9264083   5.5931673  55.8564913  34.0974083
   5.8271673  55.2804913  33.4844083   4.7511673  55.6754913  34.2384083
   5.5031673  55.7444913  34.0274083  13.2201673  63.4744913  36.5494083
  14.0911673  63.4384913  36.5134083  13.0011673  63.8944913  35.8174083
  13.3171673  63.5304913  36.4364083   8.5751673  65.4184913  20.2134083
   9.2921673  65.0714913  19.8574083   8.5411673  66.2184913  19.8654083
   8.6761673  65.4854913  20.1094083   9.9841673  54.0594913   4.4521673
   9.7391673  54.5474913   3.7721673  10.8471673  53.9864913   4.3521673
  10.0751673  54.1204913   4.3371673   9.7931673  60.9754913   9.1231673
   9.2691673  61.5714913   9.4861673  10.1901673  60.6074913   9.8071673
   9.7741673  61.0094913   9.2781673  12.4641673  62.0424913   5.7991673
  12.5441673  62.0464913   4.9301673  11.8801673  61.4104913   5.9481673
  12.3891673  61.9494913   5.6931673   6.4531673  55.1464913   3.6071673
   6.3831673  55.8234913   3.0611673   7.1941673  54.7584913   3.3581673
   6.5521673  55.1894913   3.4891673   6.1761673  65.3754913  15.9011673
   5.9401673  65.3724913  16.7411673   5.4281673  65.2274913  15.4771673
   6.0301673  65.3524913  15.9621673   5.5561673  57.9814913  10.3831673
   6.2341673  57.9994913   9.8341673   5.5111673  57.1454913  10.6281673
   5.6491673  57.8604913  10.3381673   3.0491673  60.4714913   5.0591673
   3.8661673  60.2844913   5.3021673   2.5721673  59.8574913   5.4551673
   3.0991673  60.3534913   5.1541673   7.2531673  66.4524913   7.6691673
   7.6011673  65.6534913   7.6991673   7.9181673  66.9564913   7.4141673
   7.4031673  66.4084913   7.6361673   7.3101673  65.9014913   3.8801673
   7.6411673  65.2574913   4.3661673   7.5501673  65.6904913   3.0691673
   7.3941673  65.7754913   3.8321673   9.2781673  60.0324913  15.2191673
   8.4301673  59.9334913  15.0411673   9.3071673  60.7774913  15.6731673
   9.1571673  60.1284913  15.2601673   3.6461673  55.5654913   4.3251673
   3.3501673  56.0664913   3.6751673   4.5131673  55.6434913   4.2681673
   3.7301673  55.6514913   4.2211673  13.8361673  52.9924913  14.3331673
  13.6781673  53.7614913  13.9511673  13.0641673  52.7724913  14.6771673
  13.6981673  53.0734913  14.3281673   6.6251673  54.7074913   6.5481673
   6.6981673  55.5674913   6.6771673   6.5871673  54.6324913   5.6801673
   6.6301673  54.8234913   6.4391673   5.2541673  67.6864913   3.4291673
   4.6751673  67.4114913   4.0211673   5.8781673  67.0774913   3.4541673
   5.2611673  67.5564913   3.5201673   2.5331673  54.9494913   8.5401673
   2.0121673  54.3214913   8.2321673   3.1241673  54.5124913   9.0111673
   2.5441673  54.7914913   8.5641673   5.8391673  57.0824913  17.8381673
   5.9561673  56.6284913  17.1021673   6.1271673  57.8804913  17.6351673
   5.8991673  57.1334913  17.6991673  16.6921673  57.6064913   5.1421673
  16.3461673  58.2844913   5.5681673  16.0561673  57.0084913   5.1581673
  16.5471673  57.6184913   5.2071673   1.7771673  66.9994913   7.3801673
   2.2001673  66.6434913   6.7061673   2.1011673  66.5774913   8.0721673
   1.8871673  66.8844913   7.3831673   8.2211673  54.3224913  15.9901673
   8.3991673  53.5134913  15.7151673   8.0781673  54.7634913  15.2511673
   8.2261673  54.2684913  15.8401673   8.8151673  59.2484913   4.7631673
   9.1021673  59.0164913   3.9731673   9.5471673  59.3274913   5.2321673
   8.9651673  59.2254913   4.7161673  16.3671673  55.9294913  10.5111673
  17.1241673  56.0014913  10.0831673  16.4301673  55.1564913  10.9101673
  16.4881673  55.8264913  10.5061673  11.2581673  67.5614913  14.9501673
  11.2241673  67.9434913  15.7341673  12.1121673  67.5194913  14.7791673
  11.3791673  67.6114913  15.0411673   9.1611673  58.0304913   2.0681673
   8.6531673  57.3684913   1.8141673   9.2131673  58.5344913   1.3581673
   9.0941673  58.0074913   1.9261673   9.1611673  54.9714913   1.9591673
   8.7061673  54.5694913   1.3331673   9.9341673  55.1264913   1.5841673
   9.2081673  54.9354913   1.8111673   7.7591673  57.3384913   6.4811673
   7.8331673  57.9064913   5.8231673   7.8801673  57.8304913   7.1911673
   7.7871673  57.4954913   6.4891673  12.9841673  67.1734913   4.8931673
  13.6851673  66.6914913   5.0821673  12.3241673  66.6044913   4.9381673
  12.9901673  67.0184913   4.9271673   2.3671673  53.1614913   4.8291673
   2.9031673  53.8494913   4.8191673   2.3701673  52.8874913   4.0011673
   2.4461673  53.2224913   4.7051673   5.3231673  63.5944913   8.8541673
   5.4951673  63.3844913   9.6831673   4.6681673  63.0604913   8.6381673
   5.2521673  63.4844913   8.9451673  11.5511673  57.5084913  12.3691673
  11.4561673  57.8274913  13.1751673  10.9581673  56.8694913  12.3311673
  11.4491673  57.4604913  12.4831673   6.0731673  63.5324913  11.4441673
   6.1261673  64.3794913  11.6461673   5.7881673  63.1624913  12.1811673
   6.0391673  63.6024913  11.5821673  12.2501673  64.2274913  10.5741673
  11.7361673  63.8154913  11.1451673  12.1241673  65.0714913  10.7551673
  12.1561673  64.2914913  10.6851673  12.8071673  53.4524913   5.2051673
  12.8561673  53.1344913   6.0161673  13.1301673  52.8084913   4.7121673
  12.8621673  53.3104913   5.2521673  15.2711673  57.6884913  13.5131673
  16.0431673  57.4634913  13.8501673  14.7961673  57.9054913  14.2131673
  15.3151673  57.6874913  13.6661673   2.8151673  56.9714913   6.4831673
   3.0871673  56.5414913   5.7751673   2.6391673  56.3354913   7.0541673
   2.8291673  56.8144913   6.4631673   2.6391673  64.3984913   6.0321673
   3.4901673  64.3184913   5.8591673   2.2821673  63.7164913   5.6201673
   2.7121673  64.2854913   5.9451673   5.0071673  64.4054913   4.2671673
   5.7201673  64.9004913   4.3571673   5.2291673  63.8384913   3.6411673
   5.1451673  64.3944913   4.1881673   6.8101673  59.7584913  17.6831673
   6.3261673  60.3354913  18.1251673   6.7821673  60.0534913  16.8621673
   6.7341673  59.8874913  17.6271673  17.9081673  60.4424913  12.2951673
  18.1231673  59.6424913  12.0191673  17.0581673  60.5024913  12.1061673
  17.8141673  60.3334913  12.2261673  15.5871673  55.6224913   2.0181673
  16.3331673  55.2154913   2.2171673  15.8501673  56.3374913   1.5931673
  15.7361673  55.6684913   1.9851673   3.6051673  65.8964913   9.3541673
   4.0721673  66.1854913  10.0321673   4.1771673  65.4184913   8.9001673
   3.7591673  65.8684913   9.3871673  12.0411673  57.9104913   7.0911673
  12.3851673  58.0624913   7.8781673  11.5881673  57.1724913   7.2041673
  12.0251673  57.8234913   7.2241673   4.2551673  67.0824913   6.1801673
   4.3811673  67.9254913   6.3671673   4.9231673  66.6834913   6.5761673
   4.3731673  67.1484913   6.2661673   2.3851673  60.5654913  16.0421673
   1.8491673  60.0594913  16.5101673   2.4051673  60.1754913  15.2621673
   2.3081673  60.4324913  15.9961673   3.0371673  61.7924913   7.7811673
   2.2561673  61.7334913   7.3981673   3.1091673  61.0404913   8.2181673
   2.9321673  61.6734913   7.7891673   3.4671673  61.5294913  11.2491673
   3.4921673  60.8544913  10.6981673   2.8211673  62.0254913  10.9371673
   3.3761673  61.5024913  11.1221673  13.3621673  59.2424913   9.6451673
  12.7001673  59.5704913  10.1081673  13.5491673  59.8764913   9.0761673
  13.2921673  59.3844913   9.6291673  10.0071673  55.1484913  13.0741673
  10.1561673  54.3234913  12.8311673  10.3861673  55.2034913  13.8581673
  10.0851673  55.0344913  13.1541673  11.5551673  57.2114913   3.1561673
  12.0451673  57.9284913   3.0791673  10.7651673  57.4724913   2.8931673
  11.5111673  57.3554913   3.1061673  12.8691673  65.0894913  15.0661673
  13.3531673  65.8074913  15.1641673  13.2631673  64.6624913  14.4151673
  12.9991673  65.1324913  14.9841673   7.1651673  67.9344913  16.2431673
   7.5191673  67.7564913  17.0201673   6.7291673  67.2054913  16.0441673
   7.1531673  67.8004913  16.3291673   8.1371673  58.6814913   8.8811673
   8.6171673  59.3804913   9.0891673   8.5101673  58.0344913   9.3321673
   8.2631673  58.6894913   8.9781673  15.2981673  65.7204913   5.1361673
  15.6541673  65.3704913   5.8511673  15.2901673  65.0594913   4.5661673
  15.3501673  65.5704913   5.1571673  11.3561673  65.6374913   8.3801673
  10.5591673  65.8614913   8.6541673  11.6141673  65.0434913   8.9651673
  11.2761673  65.5824913   8.5071673  14.6161673  63.6354913  13.2261673
  14.6711673  63.7604913  12.3641673  15.3691673  63.9554913  13.5281673
  14.7351673  63.7004913  13.1431673  15.6481673  53.9334913  16.2131673
  15.0111673  53.5334913  15.7711673  15.6741673  53.5024913  16.9711673
  15.5581673  53.8114913  16.2591673   2.0411673  62.4994913   2.0591673
   2.3651673  61.7204913   1.8371673   2.6871673  62.8674913   2.5141673
   2.1841673  62.4384913   2.0931673  10.3471673  63.4414913  12.8261673
  10.1921673  64.0514913  13.4301673  10.8811673  62.8834913  13.2321673
  10.4031673  63.4494913  12.9751673   8.7311673  61.8414913   3.4841673
   8.7901673  62.4914913   4.0631673   8.5421673  61.1454913   3.9751673
   8.7121673  61.8344913   3.6421673  13.9571673  66.1704913   9.3531673
  13.4781673  66.4684913   8.6871673  13.6011673  65.3944913   9.5311673
  13.8341673  66.0994913   9.2811673   7.9541673  63.8884913   7.9151673
   7.1071673  63.6944913   7.9961673   8.2781673  63.7234913   8.7081673
   7.8761673  63.8354913   8.0441673   5.0321673  58.7524913   6.9661673
   5.8781673  58.5624913   7.0641673   4.6621673  57.9754913   6.8281673
   5.1021673  58.6094913   6.9601673  14.8881673  63.1124913  10.4721673
  14.8811673  62.3364913  10.8701673  14.0471673  63.3464913  10.4651673
  14.7631673  63.0324913  10.5301673  16.1441673  63.1834913   7.9091673
  15.8581673  63.5844913   8.6291673  17.0041673  63.1214913   8.0361673
  16.2291673  63.2334913   8.0341673   5.8331673  59.9854913   1.8171673
   6.1051673  60.8114913   1.8841673   4.9701673  60.0604913   1.7211673
   5.7461673  60.1184913   1.8121673  13.8061673  57.1074913  16.4491673
  13.2811673  57.5664913  16.9731673  13.4451673  56.3124913  16.4431673
  13.6751673  57.0574913  16.5251673  12.2981673  60.6764913  16.5251673
  12.3711673  60.7804913  17.3881673  11.6641673  61.2344913  16.3041673
  12.2151673  60.7744913  16.6201673  14.5661673  60.9954913  14.8901673
  14.8851673  61.7814913  15.0931673  14.1961673  60.7254913  15.6331673
  14.5591673  61.0714913  15.0301673  14.3621673  59.2534913   6.0791673
  13.6171673  58.9304913   6.3971673  14.3641673  60.0794913   6.3591673
  14.2521673  59.3274913   6.1671673  17.2641673  61.5374913  17.6251673
  17.2121673  61.1964913  16.8241673  18.0011673  62.0044913  17.6031673
  17.3651673  61.5564913  17.5031673  16.8021673  65.2134913  13.8311673
  17.4301673  64.6644913  13.5751673  16.7411673  65.7784913  13.1691673
  16.8861673  65.2164913  13.6951673   5.9361673  66.4444913  11.1271673
   5.6381673  67.0364913  11.6941673   5.9911673  66.8864913  10.3781673
   5.9001673  66.5974913  11.1001673   3.9151673  65.3944913  14.5251673
   3.1091673  65.1044913  14.6921673   3.8261673  66.2624913  14.5311673
   3.7831673  65.4794913  14.5501673  13.2741673  55.5834913  13.5401673
  14.0181673  56.0354913  13.4771673  12.7081673  56.0534913  13.0711673
  13.3011673  55.7204913  13.4621673   8.4521673  62.8674913  10.6181673
   8.9281673  63.2414913  11.2461673   7.6291673  63.0014913  10.8771673
   8.4011673  62.9424913  10.7491673   5.1621673  58.4704913  13.3591673
   5.3231673  57.7264913  13.7861673   5.1171673  58.2214913  12.5241673
   5.1791673  58.3234913  13.2991673  14.5591673  53.5634913  11.2101673
  14.2791673  54.3884913  11.1661673  15.2751673  53.6164913  11.7061673
  14.6241673  53.6934913  11.2771673   6.9141673  54.2784913  13.2391673
   7.6191673  54.5984913  12.8371673   7.1551673  53.4714913  13.4661673
   7.0531673  54.2064913  13.2131673  10.2081673  65.1224913  16.2241673
  10.9651673  65.4084913  15.8981673   9.6611673  65.1744913  15.5461673
  10.2391673  65.1724913  16.0751673   3.4231673  59.3314913   9.3001673
   3.8631673  59.2284913   8.5541673   3.9681673  59.0184913   9.9051673
   3.5681673  59.2704913   9.2791673  11.4391673  58.4334913  14.8921673
  10.7911673  58.9034913  15.2401673  12.0041673  58.3444913  15.5511673
  11.4271673  58.4894913  15.0411673  11.1271673  59.9704913  11.1901673
  11.4291673  60.3904913  11.8931673  11.1631673  59.1304913  11.4221673
  11.1771673  59.9084913  11.3281673  13.6751673  59.4174913   3.4421673
  13.8821673  59.2164913   4.2661673  14.4311673  59.6854913   3.1001673
  13.8171673  59.4274913   3.5131673   6.9701673  54.3164913   9.3471673
   6.1441673  54.1674913   9.5841673   6.9301673  54.3514913   8.4761673
   6.8421673  54.2994913   9.2531673  14.6971673  55.5004913   4.9161673
  13.9831673  55.0294913   5.0871673  14.5351673  55.8414913   4.1301673
  14.5681673  55.4814913   4.8251673  15.1401673  63.4444913   3.2961673
  15.6161673  62.7154913   3.2481673  14.3191673  63.1584913   3.2201673
  15.0891673  63.2944913   3.2771673   8.6111673  65.3564913  14.1351673
   7.8161673  65.2924913  14.4861673   8.6821673  66.2034913  13.9401673
   8.5041673  65.4714913  14.1581673   2.5991673  57.4584913   2.6071673
   2.7251673  57.1294913   1.8091673   1.7871673  57.2094913   2.8061673
   2.4981673  57.3734913   2.5191673  11.3561673  64.6114913   5.6511673
  11.4321673  64.9524913   6.4501673  11.5251673  63.7644913   5.7721673
  11.3921673  64.5364913   5.7871673   8.8781673  63.8854913   5.2161673
   8.5801673  63.5704913   5.9731673   9.5731673  64.3584913   5.4511673
   8.9371673  63.9084913   5.3631673  17.2761673  60.6124913  15.0541673
  16.4211673  60.4904913  15.1801673  17.4291673  60.2174913  14.2911673
  17.1721673  60.5354913  14.9601673  11.7891673  61.2774913  13.6301673
  11.5341673  60.5584913  14.0521673  12.6101673  61.3934913  13.9001673
  11.8731673  61.1884913  13.7321673   9.7231673  62.4674913  16.8171673
  10.0461673  63.1534913  16.3851673   9.0191673  62.7904913  17.2191673
   9.6661673  62.6164913  16.8121673   9.5081673  65.9314913  10.6761673
   8.8141673  66.3334913  11.0191673  10.1851673  66.3644913  11.0151673
   9.5051673  66.0544913  10.7771673   2.5761673  59.4694913  13.0231673
   2.9511673  60.0884913  12.5361673   3.2501673  58.9954913  13.3081673
   2.7311673  59.4914913  12.9931673  15.9101673  60.5574913   2.7381673
  16.0131673  60.4994913   1.8741673  16.6511673  60.2254913   3.0561673
  16.0351673  60.5004913   2.6571673   2.9051673  55.3274913  14.7091673
   2.8241673  54.4834913  14.9151673   2.5911673  55.3714913  13.8961673
   2.8471673  55.2094913  14.6191673  15.0121673  60.7034913  12.0941673
  15.0101673  59.8404913  12.2181673  15.0791673  61.0274913  12.9011673
  15.0221673  60.6234913  12.2311673  10.8911673  55.5034913  15.8761673
  10.9831673  56.2154913  16.3701673  10.2541673  55.0584913  16.2731673
  10.8101673  55.5424913  16.0081673   9.8851673  55.6934913   6.7301673
   9.1851673  56.2114913   6.6741673   9.9231673  55.3134913   5.9461673
   9.7871673  55.7144913   6.6061673  13.4831673  56.2094913   9.5301673
  14.3381673  56.3084913   9.6751673  13.1141673  56.7624913  10.0951673
  13.5551673  56.3064913   9.6351673   4.5111673  62.4354913  13.9071673
   4.1151673  63.2094913  13.9821673   4.1051673  62.0624913  13.2311673
   4.3931673  62.4944913  13.8181673  13.7871673  61.4894913   8.0211673
  14.4531673  62.0304913   8.1811673  13.4421673  61.8004913   7.2821673
  13.8341673  61.6154913   7.9361673   4.9401673  55.4124913  11.3571673
   4.0761673  55.4964913  11.4371673   5.1601673  54.8984913  12.0261673
   4.8451673  55.3494913  11.4681673  16.9581673  54.0474913  12.6861673
  16.9061673  54.0034913  13.5561673  17.6451673  53.5444913  12.4961673
  17.0521673  53.9674913  12.7861673   9.0431673  56.1604913   9.7311673
   8.3061673  55.7064913   9.8441673   9.6141673  55.7584913  10.2541673
   9.0181673  56.0334913   9.8251673  11.7751673  67.0084913  11.5191673
  11.9811673  67.3094913  12.3111673  11.7141673  67.7304913  11.0341673
  11.7961673  67.1594913  11.5641673   6.5461673  60.4894913  14.9351673
   6.2241673  59.9134913  14.3651673   6.1871673  61.2444913  14.6891673
   6.4461673  60.5154913  14.8151673  16.5871673  65.6474913  10.9771673
  16.5551673  64.7854913  10.8421673  15.8941673  65.9494913  10.5431673
  16.4801673  65.5644913  10.8931673  11.2061673  54.3514913   8.9821673
  11.8761673  54.8954913   9.1091673  10.7031673  54.7754913   8.4091673
  11.2311673  54.4944913   8.9161673  10.5651673  60.1594913   6.4751673
  11.1161673  59.5524913   6.7751673  10.1401673  60.4224913   7.1901673
  10.5841673  60.1084913   6.6241673  12.5351673  61.9904913   3.0371673
  12.6031673  61.1404913   3.2181673  11.7121673  62.0764913   2.7591673
  12.4231673  61.8774913   3.0231673  15.8091673  63.3634913  16.1881673
  16.4431673  63.1934913  16.7621673  16.2261673  63.7664913  15.5361673
  15.9641673  63.3984913  16.1771673  11.6891673  67.2104913   1.7771673
  11.4381673  67.0824913   2.6031673  11.3721673  66.5154913   1.3561673
  11.6051673  67.0894913   1.8371673  16.4341673  57.9274913  16.9261673
  16.2381673  58.5714913  17.4811673  15.7121673  57.4374913  16.9181673
  16.2991673  57.9504913  17.0071673  16.3331673  58.8684913   9.8971673
  15.5001673  59.1184913   9.8251673  16.2771673  58.0284913  10.1261673
  16.2021673  58.7814913   9.9201673   5.5931673  55.8564913  15.0911673
   5.8271673  55.2804913  14.4781673   4.7511673  55.6754913  15.2321673
   5.5031673  55.7444913  15.0211673  13.2201673  63.4744913  17.5431673
  14.0911673  63.4384913  17.5071673  13.0011673  63.8944913  16.8111673
  13.3171673  63.5304913  17.4301673   9.9841673  35.5813833  80.4771313
   9.7391673  36.0693833  79.7971313  10.8471673  35.5083833  80.3771313
  10.0751673  35.6423833  80.3621313   9.7931673  42.4973833  85.1481313
   9.2691673  43.0933833  85.5111313  10.1901673  42.1293833  85.8321313
   9.7741673  42.5313833  85.3031313  15.9371673  49.9383833  78.1191313
  16.6381673  49.4193833  78.1151313  15.3501673  49.4933833  77.6501313
  15.9541673  49.7953833  78.0491313   2.5441673  45.6923833  75.7831313
   2.1521673  45.3213833  75.0971313   2.4641673  45.0943833  76.4121313
   2.4741673  45.5493833  75.7741313  12.4641673  43.5643833  81.8241313
  12.5441673  43.5683833  80.9551313  11.8801673  42.9323833  81.9731313
  12.3891673  43.4713833  81.7181313   6.4531673  36.6683833  79.6321313
   6.3831673  37.3453833  79.0861313   7.1941673  36.2803833  79.3831313
   6.5521673  36.7113833  79.5141313   5.5561673  39.5033833  86.4081313
   6.2341673  39.5213833  85.8591313   5.5111673  38.6673833  86.6531313
   5.6491673  39.3823833  86.3631313   6.1581673  50.0893833  89.1891313
   6.2961673  50.8493833  88.7821313   6.9491673  49.7243833  89.2161313
   6.2951673  50.1483833  89.1331313   3.0491673  41.9933833  81.0841313
   3.8661673  41.8063833  81.3271313   2.5721673  41.3793833  81.4801313
   3.0991673  41.8753833  81.1791313   7.2531673  47.9743833  83.6941313
   7.6011673  47.1753833  83.7241313   7.9181673  48.4783833  83.4391313
   7.4031673  47.9303833  83.6611313   7.3101673  47.4233833  79.9051313
   7.6411673  46.7793833  80.3911313   7.5501673  47.2123833  79.0941313
   7.3941673  47.2973833  79.8571313   3.6461673  37.0873833  80.3501313
   3.3501673  37.5883833  79.7001313   4.5131673  37.1653833  80.2931313
   3.7301673  37.1733833  80.2461313  13.8361673  34.5143833  90.3581313
  13.6781673  35.2833833  89.9761313  13.0641673  34.2943833  90.7021313
  13.6981673  34.5953833  90.3531313   6.6251673  36.2293833  82.5731313
   6.6981673  37.0893833  82.7021313   6.5871673  36.1543833  81.7051313
   6.6301673  36.3453833  82.4641313  11.2981673  39.1553833  74.8721313
  10.8481673  39.8363833  75.1791313  11.4121673  38.6513833  75.5751313
  11.2491673  39.1813833  75.0211313   5.2541673  49.2083833  79.4541313
   4.6751673  48.9333833  80.0461313   5.8781673  48.5993833  79.4791313
   5.2611673  49.0783833  79.5451313  11.3971673  51.4963833  76.9761313
  12.1241673  51.9683833  77.0781313  11.6261673  50.7023833  77.2561313
  11.5391673  51.4493833  77.0331313   9.5651673  51.8883833  78.9661313
   9.7791673  52.4153833  79.6281313  10.3321673  51.7143833  78.5871313
   9.7101673  51.9403833  79.0081313   2.5331673  36.4713833  84.5651313
   2.0121673  35.8433833  84.2571313   3.1241673  36.0343833  85.0361313
   2.5441673  36.3133833  84.5891313  16.6921673  39.1283833  81.1671313
  16.3461673  39.8063833  81.5931313  16.0561673  38.5303833  81.1831313
  16.5471673  39.1403833  81.2321313  12.0041673  51.8983833  87.2711313
  12.7481673  52.3543833  87.2611313  11.8831673  51.6843833  86.4341313
  12.0961673  51.9343833  87.1461313   1.7771673  48.5213833  83.4051313
   2.2001673  48.1653833  82.7311313   2.1011673  48.0993833  84.0971313
   1.8871673  48.4063833  83.4081313   5.0081673  51.3733833  82.7011313
   5.8521673  51.4773833  82.5061313   4.7111673  52.1913833  82.7691313
   5.0891673  51.5093833  82.6821313   8.8151673  40.7703833  80.7881313
   9.1021673  40.5383833  79.9981313   9.5471673  40.8493833  81.2571313
   8.9651673  40.7473833  80.7411313   9.5371673  41.1093833  75.9091313
   9.8181673  41.8973833  76.1581313   8.7611673  41.2743833  75.5461313
   9.4641673  41.2503833  75.8921313  13.5781673  53.0833833  77.3761313
  14.2431673  52.9353833  76.8311313  13.9381673  53.0003833  78.1661313
  13.7301673  53.0493833  77.4121313   4.0061673  52.5923833  88.4411313
   4.2981673  52.5253833  89.2611313   3.3801673  51.9873833  88.3961313
   3.9571673  52.4933833  88.5561313  16.3671673  37.4513833  86.5361313
  17.1241673  37.5233833  86.1081313  16.4301673  36.6783833  86.9351313
  16.4881673  37.3483833  86.5311313   8.3961673  49.2803833  75.7251313
   8.2151673  49.8253833  76.3821313   9.1621673  49.5703833  75.4241313
   8.4821673  49.4043833  75.7781313  11.9031673  37.1763833  76.7791313
  12.4431673  36.4943833  76.8551313  11.9651673  37.5743833  77.5531313
  11.9921673  37.1343833  76.9051313   9.1611673  39.5523833  78.0931313
   8.6531673  38.8903833  77.8391313   9.2131673  40.0563833  77.3831313
   9.0941673  39.5293833  77.9511313   9.7101673  52.2473833  88.4731313
  10.4781673  52.1673833  88.0671313   9.1271673  52.1263833  87.8351313
   9.7371673  52.2173833  88.3191313   9.1611673  36.4933833  77.9841313
   8.7061673  36.0913833  77.3581313   9.9341673  36.6483833  77.6091313
   9.2081673  36.4573833  77.8361313  15.9871673  52.8503833  81.3741313
  15.5321673  53.5673833  81.5751313  15.3731673  52.2793833  81.1321313
  15.8291673  52.8723833  81.3681313   7.7591673  38.8603833  82.5061313
   7.8331673  39.4283833  81.8481313   7.8801673  39.3523833  83.2161313
   7.7871673  39.0173833  82.5141313  12.9841673  48.6953833  80.9181313
  13.6851673  48.2133833  81.1071313  12.3241673  48.1263833  80.9631313
  12.9901673  48.5403833  80.9521313   3.3601673  49.6053833  90.1301313
   4.2011673  49.6683833  89.9081313   3.3231673  50.0023833  90.9061313
   3.4791673  49.6733833  90.2121313   2.3671673  34.6833833  80.8541313
   2.9031673  35.3713833  80.8441313   2.3701673  34.4093833  80.0261313
   2.4461673  34.7443833  80.7301313   5.3231673  45.1163833  84.8791313
   5.4951673  44.9063833  85.7081313   4.6681673  44.5823833  84.6631313
   5.2521673  45.0063833  84.9701313  11.5511673  39.0303833  88.3941313
  11.4561673  39.3493833  89.2001313  10.9581673  38.3913833  88.3561313
  11.4491673  38.9823833  88.5081313   6.0731673  45.0543833  87.4691313
   6.1261673  45.9013833  87.6711313   5.7881673  44.6843833  88.2061313
   6.0391673  45.1243833  87.6071313  12.2501673  45.7493833  86.5991313
  11.7361673  45.3373833  87.1701313  12.1241673  46.5933833  86.7801313
  12.1561673  45.8133833  86.7101313  12.8071673  34.9743833  81.2301313
  12.8561673  34.6563833  82.0411313  13.1301673  34.3303833  80.7371313
  12.8621673  34.8323833  81.2771313  15.2711673  39.2103833  89.5381313
  16.0431673  38.9853833  89.8751313  14.7961673  39.4273833  90.2381313
  15.3151673  39.2093833  89.6911313   2.8151673  38.4933833  82.5081313
   3.0871673  38.0633833  81.8001313   2.6391673  37.8573833  83.0791313
   2.8291673  38.3363833  82.4881313  15.5031673  46.1883833  76.7261313
  15.6221673  45.9013833  77.5411313  16.3101673  46.2093833  76.3961313
  15.6391673  46.1493833  76.7981313   2.6391673  45.9203833  82.0571313
   3.4901673  45.8403833  81.8841313   2.2821673  45.2383833  81.6451313
   2.7121673  45.8073833  81.9701313  13.3981673  42.7253833  76.3111313
  13.1781673  43.4563833  75.8891313  12.9501673  42.7763833  77.0581313
  13.2991673  42.8403833  76.3591313   5.0071673  45.9273833  80.2921313
   5.7201673  46.4223833  80.3821313   5.2291673  45.3603833  79.6661313
   5.1451673  45.9163833  80.2131313  17.5851673  37.5863833  75.7641313
  16.9231673  37.0183833  75.7871313  17.3921673  38.0983833  75.0841313
  17.4591673  37.5783833  75.6671313  17.9081673  41.9643833  88.3201313
  18.1231673  41.1643833  88.0441313  17.0581673  42.0243833  88.1311313
  17.8141673  41.8553833  88.2511313  15.5871673  37.1443833  78.0431313
  16.3331673  36.7373833  78.2421313  15.8501673  37.8593833  77.6181313
  15.7361673  37.1903833  78.0101313   9.5301673  49.6303833  82.6191313
   9.0071673  50.2643833  82.3261313   9.8401673  49.2663833  81.8901313
   9.4981673  49.6703833  82.4681313   3.6051673  47.4183833  85.3791313
   4.0721673  47.7073833  86.0571313   4.1771673  46.9403833  84.9251313
   3.7591673  47.3903833  85.4121313  12.0411673  39.4323833  83.1161313
  12.3851673  39.5843833  83.9031313  11.5881673  38.6943833  83.2291313
  12.0251673  39.3453833  83.2491313   6.5171673  38.6523833  77.5731313
   6.5151673  38.5353833  76.7081313   6.3361673  39.5003833  77.6651313
   6.4901673  38.7603833  77.4591313  15.5711673  51.0793833  89.0701313
  14.9001673  51.5933833  89.2881313  15.6341673  51.1793833  88.2061313
  15.4811673  51.1703833  88.9751313   4.2551673  48.6043833  82.2051313
   4.3811673  49.4473833  82.3921313   4.9231673  48.2053833  82.6011313
   4.3731673  48.6703833  82.2911313   2.8701673  41.4843833  77.2071313
   2.7421673  41.0363833  77.9451313   2.2881673  41.1423833  76.6551313
   2.7651673  41.3673833  77.2351313   3.0371673  43.3143833  83.8061313
   2.2561673  43.2553833  83.4231313   3.1091673  42.5623833  84.2431313
   2.9321673  43.1953833  83.8141313   3.4671673  43.0513833  87.2741313
   3.4921673  42.3763833  86.7231313   2.8211673  43.5473833  86.9621313
   3.3761673  43.0243833  87.1471313  13.3621673  40.7643833  85.6701313
  12.7001673  41.0923833  86.1331313  13.5491673  41.3983833  85.1011313
  13.2921673  40.9063833  85.6541313   7.5671673  51.8283833  86.6661313
   7.2901673  51.1873833  86.1431313   7.3591673  52.5543833  86.2281313
   7.4961673  51.8413833  86.5241313  10.0071673  36.6703833  89.0991313
  10.1561673  35.8453833  88.8561313  10.3861673  36.7253833  89.8831313
  10.0851673  36.5563833  89.1791313  11.5551673  38.7333833  79.1811313
  12.0451673  39.4503833  79.1041313  10.7651673  38.9943833  78.9181313
  11.5111673  38.8773833  79.1311313  12.8691673  46.6113833  91.0911313
  13.3531673  47.3293833  91.1891313  13.2631673  46.1843833  90.4401313
  12.9991673  46.6543833  91.0091313   8.1371673  40.2033833  84.9061313
   8.6171673  40.9023833  85.1141313   8.5101673  39.5563833  85.3571313
   8.2631673  40.2113833  85.0031313  10.3261673  43.3723833  77.1801313
  10.3181673  44.0943833  76.6901313   9.6871673  43.5073833  77.7571313
  10.2311673  43.4993833  77.1931313  15.2981673  47.2423833  81.1611313
  15.6541673  46.8923833  81.8761313  15.2901673  46.5813833  80.5911313
  15.3501673  47.0923833  81.1821313  11.3431673  50.3083833  85.0051313
  10.7401673  50.0123833  84.4481313  11.8881673  50.7603833  84.4961313
  11.3341673  50.3313833  84.8471313  11.3561673  47.1593833  84.4051313
  10.5591673  47.3833833  84.6791313  11.6141673  46.5653833  84.9901313
  11.2761673  47.1043833  84.5321313   5.2481673  51.9713833  78.8531313
   5.1011673  51.1953833  79.2241313   5.9371673  51.8243833  78.3381313
   5.3281673  51.8343833  78.8321313   4.9191673  35.7143833  76.8411313
   5.0161673  35.6073833  77.7021313   4.2111673  36.2203833  76.7761313
   4.8291673  35.7733833  76.9591313   7.5401673  51.4873833  77.2551313
   8.1621673  51.6503833  77.8451313   7.5761673  52.1783833  76.7231313
   7.6371673  51.6133833  77.2641313  14.6161673  45.1573833  89.2511313
  14.6711673  45.2823833  88.3891313  15.3691673  45.4773833  89.5531313
  14.7351673  45.2223833  89.1681313   2.0411673  44.0213833  78.0841313
   2.3651673  43.2423833  77.8621313   2.6871673  44.3893833  78.5391313
   2.1841673  43.9603833  78.1181313  10.3471673  44.9633833  88.8511313
  10.1921673  45.5733833  89.4551313  10.8811673  44.4053833  89.2571313
  10.4031673  44.9713833  89.0001313   8.7311673  43.3633833  79.5091313
   8.7901673  44.0133833  80.0881313   8.5421673  42.6673833  80.0001313
   8.7121673  43.3563833  79.6671313  13.9571673  47.6923833  85.3781313
  13.4781673  47.9903833  84.7121313  13.6011673  46.9163833  85.5561313
  13.8341673  47.6213833  85.3061313   3.2271673  37.8803833  76.0211313
   2.7161673  37.9333833  75.3151313   4.0111673  38.1203833  75.7251313
   3.2671673  37.9233833  75.8731313   7.9541673  45.4103833  83.9401313
   7.1071673  45.2163833  84.0211313   8.2781673  45.2453833  84.7331313
   7.8761673  45.3573833  84.0691313   4.7061673  52.1403833  74.8261313
   5.1451673  51.4433833  75.1141313   4.9131673  52.7643833  75.3991313
   4.8021673  52.1293833  74.9531313   5.0321673  40.2743833  82.9911313
   5.8781673  40.0843833  83.0891313   4.6621673  39.4973833  82.8531313
   5.1021673  40.1313833  82.9851313  17.6491673  51.8583833  77.3181313
  18.3431673  51.3913833  77.0701313  17.1101673  51.2603833  77.6551313
  17.6721673  51.7003833  77.3311313  14.8881673  44.6343833  86.4971313
  14.8811673  43.8583833  86.8951313  14.0471673  44.8683833  86.4901313
  14.7631673  44.5543833  86.5551313   4.3781673  43.0463833  75.1321313
   3.7681673  42.6413833  75.6061313   3.9921673  43.1643833  74.3591313
   4.2311673  43.0033833  75.0881313  16.1441673  44.7053833  83.9341313
  15.8581673  45.1063833  84.6541313  17.0041673  44.6433833  84.0611313
  16.2291673  44.7553833  84.0591313   5.8331673  41.5073833  77.8421313
   6.1051673  42.3333833  77.9091313   4.9701673  41.5823833  77.7461313
   5.7461673  41.6403833  77.8371313  17.2751673  50.3383833  84.4631313
  17.5651673  50.5953833  83.6821313  17.9701673  50.4343833  84.9821313
  17.4211673  50.3903833  84.4241313  13.8801673  48.9413833  76.4451313
  14.2141673  48.1353833  76.4801313  13.1251673  48.8693833  76.8751313
  13.8181673  48.8113833  76.5141313  14.3621673  40.7753833  82.1041313
  13.6171673  40.4523833  82.4221313  14.3641673  41.6013833  82.3841313
  14.2521673  40.8493833  82.1921313  16.8021673  46.7353833  89.8561313
  17.4301673  46.1863833  89.6001313  16.7411673  47.3003833  89.1941313
  16.8861673  46.7383833  89.7201313  11.2541673  46.8163833  75.8481313
  11.9381673  46.3023833  75.6791313  10.8371673  46.8623833  75.0831313
  11.2931673  46.7473833  75.7101313   5.9361673  47.9663833  87.1521313
   5.6381673  48.5583833  87.7191313   5.9911673  48.4083833  86.4031313
   5.9001673  48.1193833  87.1251313   3.9151673  46.9163833  90.5501313
   3.1091673  46.6263833  90.7171313   3.8261673  47.7843833  90.5561313
   3.7831673  47.0013833  90.5751313  13.2741673  37.1053833  89.5651313
  14.0181673  37.5573833  89.5021313  12.7081673  37.5753833  89.0961313
  13.3011673  37.2423833  89.4871313   8.4521673  44.3893833  86.6431313
   8.9281673  44.7633833  87.2711313   7.6291673  44.5233833  86.9021313
   8.4011673  44.4643833  86.7741313   5.1621673  39.9923833  89.3841313
   5.3231673  39.2483833  89.8111313   5.1171673  39.7433833  88.5491313
   5.1791673  39.8453833  89.3241313   7.7161673  51.7823833  81.8711313
   8.2621673  52.4613833  81.9251313   7.3661673  51.8643833  81.0761313
   7.7451673  51.8953833  81.7611313  14.5591673  35.0853833  87.2351313
  14.2791673  35.9103833  87.1911313  15.2751673  35.1383833  87.7311313
  14.6241673  35.2153833  87.3021313   6.9141673  35.8003833  89.2641313
   7.6191673  36.1203833  88.8621313   7.1551673  34.9933833  89.4911313
   7.0531673  35.7283833  89.2381313   5.8991673  50.0103833  85.2601313
   5.2751673  50.5923833  85.0781313   6.1471673  49.7243833  84.4741313
   5.8431673  50.0543833  85.1171313  15.9801673  41.3403833  76.0921313
  16.3581673  42.0173833  75.6921313  15.1381673  41.5643833  76.1231313
  15.9111673  41.4733833  76.0371313   7.4931673  44.7863833  75.1751313
   6.6881673  44.6093833  74.8901313   7.4601673  45.6373833  75.3671313
   7.3691673  44.8853833  75.1621313   3.4231673  40.8533833  85.3251313
   3.8631673  40.7503833  84.5791313   3.9681673  40.5403833  85.9301313
   3.5681673  40.7923833  85.3041313  11.1271673  41.4923833  87.2151313
  11.4291673  41.9123833  87.9181313  11.1631673  40.6523833  87.4471313
  11.1771673  41.4303833  87.3531313  13.6751673  40.9393833  79.4671313
  13.8821673  40.7383833  80.2911313  14.4311673  41.2073833  79.1251313
  13.8171673  40.9493833  79.5381313   6.9701673  35.8383833  85.3721313
   6.1441673  35.6893833  85.6091313   6.9301673  35.8733833  84.5011313
   6.8421673  35.8213833  85.2781313  14.6971673  37.0223833  80.9411313
  13.9831673  36.5513833  81.1121313  14.5351673  37.3633833  80.1551313
  14.5681673  37.0033833  80.8501313  15.1401673  44.9663833  79.3211313
  15.6161673  44.2373833  79.2731313  14.3191673  44.6803833  79.2451313
  15.0891673  44.8163833  79.3021313   8.6111673  46.8783833  90.1601313
   7.8161673  46.8143833  90.5111313   8.6821673  47.7253833  89.9651313
   8.5041673  46.9933833  90.1831313   4.4411673  53.0853833  85.4771313
   4.4521673  53.1443833  86.3471313   4.0161673  52.3383833  85.3271313
   4.3801673  52.9833833  85.5831313   2.5991673  38.9803833  78.6321313
   2.7251673  38.6513833  77.8341313   1.7871673  38.7313833  78.8311313
   2.4981673  38.8953833  78.5441313  11.3561673  46.1333833  81.6761313
  11.4321673  46.4743833  82.4751313  11.5251673  45.2863833  81.7971313
  11.3921673  46.0583833  81.8121313   8.8781673  45.4073833  81.2411313
   8.5801673  45.0923833  81.9981313   9.5731673  45.8803833  81.4761313
   8.9371673  45.4303833  81.3881313   9.1001673  49.5253833  89.2681313
   9.7871673  49.4113833  89.7931313   9.2341673  50.3163833  88.9241313
   9.2211673  49.6253833  89.2951313  17.2761673  42.1343833  91.0791313
  16.4211673  42.0123833  91.2051313  17.4291673  41.7393833  90.3161313
  17.1721673  42.0573833  90.9851313  11.7891673  42.7993833  89.6551313
  11.5341673  42.0803833  90.0771313  12.6101673  42.9153833  89.9251313
  11.8731673  42.7103833  89.7571313  12.8071673  52.3633833  83.7711313
  12.3561673  53.0063833  84.1501313  13.5151673  52.2843833  84.2761313
  12.8451673  52.4463833  83.9021313   9.5081673  47.4533833  86.7011313
   8.8141673  47.8553833  87.0441313  10.1851673  47.8863833  87.0401313
   9.5051673  47.5763833  86.8021313   2.5761673  40.9913833  89.0481313
   2.9511673  41.6103833  88.5611313   3.2501673  40.5173833  89.3331313
   2.7311673  41.0133833  89.0181313  15.9101673  42.0793833  78.7631313
  16.0131673  42.0213833  77.8991313  16.6511673  41.7473833  79.0811313
  16.0351673  42.0223833  78.6821313   2.9051673  36.8493833  90.7341313
   2.8241673  36.0053833  90.9401313   2.5911673  36.8933833  89.9211313
   2.8471673  36.7313833  90.6441313   9.8301673  49.0443833  79.8701313
   9.6251673  49.8773833  79.7111313   9.0551673  48.6623833  79.9921313
   9.6851673  49.1113833  79.8651313  15.0121673  42.2253833  88.1191313
  15.0101673  41.3623833  88.2431313  15.0791673  42.5493833  88.9261313
  15.0221673  42.1453833  88.2561313   9.8851673  37.2153833  82.7551313
   9.1851673  37.7333833  82.6991313   9.9231673  36.8353833  81.9711313
   9.7871673  37.2363833  82.6311313   5.1921673  49.3063833  76.2791313
   5.6331673  49.3863833  77.0271313   4.3871673  49.0903833  76.5371313
   5.1381673  49.2863833  76.4281313  13.4831673  37.7313833  85.5551313
  14.3381673  37.8303833  85.7001313  13.1141673  38.2843833  86.1201313
  13.5551673  37.8283833  85.6601313   4.5111673  43.9573833  89.9321313
   4.1151673  44.7313833  90.0071313   4.1051673  43.5843833  89.2561313
   4.3931673  44.0163833  89.8431313  13.7871673  43.0113833  84.0461313
  14.4531673  43.5523833  84.2061313  13.4421673  43.3223833  83.3071313
  13.8341673  43.1373833  83.9611313  14.1001673  51.0773833  79.8531313
  13.9261673  50.4233833  80.4031313  14.8131673  50.8063833  79.4301313
  14.1801673  50.9403833  79.8721313   2.5211673  48.3763833  76.8801313
   2.2771673  48.0693833  77.6601313   2.4881673  47.6733833  76.3641313
   2.4801673  48.2273833  76.9191313   5.3401673  46.6213833  75.6231313
   4.5221673  46.3533833  75.7631313   5.3121673  47.4733833  75.8081313
   5.2151673  46.7083833  75.6711313   4.9401673  36.9343833  87.3821313
   4.0761673  37.0183833  87.4621313   5.1601673  36.4203833  88.0511313
   4.8451673  36.8713833  87.4931313  16.9581673  35.5693833  88.7111313
  16.9061673  35.5253833  89.5811313  17.6451673  35.0663833  88.5211313
  17.0521673  35.4893833  88.8111313   9.0431673  37.6823833  85.7561313
   8.3061673  37.2283833  85.8691313   9.6141673  37.2803833  86.2791313
   9.0181673  37.5553833  85.8501313  11.7751673  48.5303833  87.5441313
  11.9811673  48.8313833  88.3361313  11.7141673  49.2523833  87.0591313
  11.7961673  48.6813833  87.5891313   6.5461673  42.0113833  90.9601313
   6.2241673  41.4353833  90.3901313   6.1871673  42.7663833  90.7141313
   6.4461673  42.0373833  90.8401313   7.3421673  35.2633833  75.5871313
   7.4201673  35.5103833  74.7541313   6.5991673  35.6403833  75.8451313
   7.2441673  35.3553833  75.5021313  16.5871673  47.1693833  87.0021313
  16.5551673  46.3073833  86.8671313  15.8941673  47.4713833  86.5681313
  16.4801673  47.0863833  86.9181313  14.6921673  50.4293833  85.7991313
  15.2191673  50.3463833  85.1081313  14.3011673  49.6513833  85.8531313
  14.7121673  50.3023833  85.7051313  11.2061673  35.8733833  85.0071313
  11.8761673  36.4173833  85.1341313  10.7031673  36.2973833  84.4341313
  11.2311673  36.0163833  84.9411313  10.5651673  41.6813833  82.5001313
  11.1161673  41.0743833  82.8001313  10.1401673  41.9443833  83.2151313
  10.5841673  41.6303833  82.6491313  12.5351673  43.5123833  79.0621313
  12.6031673  42.6623833  79.2431313  11.7121673  43.5983833  78.7841313
  12.4231673  43.3993833  79.0481313   2.2871673  52.0063833  78.2721313
   2.1421673  52.1623833  77.4261313   3.1531673  52.0853833  78.3501313
   2.3941673  52.0413833  78.1591313   6.4541673  44.4033833  78.0001313
   6.5541673  44.5423833  77.1451313   7.2721673  44.3433833  78.2961313
   6.5891673  44.4143833  77.9171313  15.6141673  52.4673833  75.4801313
  16.2511673  52.3333833  76.0611313  15.2731673  51.6733833  75.3631313
  15.6581673  52.3303833  75.5481313  11.6891673  48.7323833  77.8021313
  11.4381673  48.6043833  78.6281313  11.3721673  48.0373833  77.3811313
  11.6051673  48.6113833  77.8621313  16.3331673  40.3903833  85.9221313
  15.5001673  40.6403833  85.8501313  16.2771673  39.5503833  86.1511313
  16.2021673  40.3033833  85.9451313   5.5931673  37.3783833  91.1161313
   5.8271673  36.8023833  90.5031313   4.7511673  37.1973833  91.2571313
   5.5031673  37.2663833  91.0461313   2.9741673  50.8213833  84.7491313
   2.8951673  50.0113833  84.4331313   2.5301673  51.3083833  84.1771313
   2.8971673  50.7733833  84.6181313   8.5751673  46.9403833  77.2321313
   9.2921673  46.5933833  76.8761313   8.5411673  47.7403833  76.8841313
   8.6761673  47.0073833  77.1281313   9.9841673  35.5813833  61.4708903
   9.7391673  36.0693833  60.7908903  10.8471673  35.5083833  61.3708903
  10.0751673  35.6423833  61.3558903   9.7931673  42.4973833  66.1418903
   9.2691673  43.0933833  66.5048903  10.1901673  42.1293833  66.8258903
   9.7741673  42.5313833  66.2968903  15.9371673  49.9383833  59.1128903
  16.6381673  49.4193833  59.1088903  15.3501673  49.4933833  58.6438903
  15.9541673  49.7953833  59.0428903   2.5441673  45.6923833  56.7768903
   2.1521673  45.3213833  56.0908903   2.4641673  45.0943833  57.4058903
   2.4741673  45.5493833  56.7678903  12.4641673  43.5643833  62.8178903
  12.5441673  43.5683833  61.9488903  11.8801673  42.9323833  62.9668903
  12.3891673  43.4713833  62.7118903   6.4531673  36.6683833  60.6258903
   6.3831673  37.3453833  60.0798903   7.1941673  36.2803833  60.3768903
   6.5521673  36.7113833  60.5078903   6.1761673  46.8973833  72.9198903
   5.9401673  46.8943833  73.7598903   5.4281673  46.7493833  72.4958903
   6.0301673  46.8743833  72.9808903   5.5561673  39.5033833  67.4018903
   6.2341673  39.5213833  66.8528903   5.5111673  38.6673833  67.6468903
   5.6491673  39.3823833  67.3568903   6.1581673  50.0893833  70.1828903
   6.2961673  50.8493833  69.7758903   6.9491673  49.7243833  70.2098903
   6.2951673  50.1483833  70.1268903   3.0491673  41.9933833  62.0778903
   3.8661673  41.8063833  62.3208903   2.5721673  41.3793833  62.4738903
   3.0991673  41.8753833  62.1728903   7.2531673  47.9743833  64.6878903
   7.6011673  47.1753833  64.7178903   7.9181673  48.4783833  64.4328903
   7.4031673  47.9303833  64.6548903   7.3101673  47.4233833  60.8988903
   7.6411673  46.7793833  61.3848903   7.5501673  47.2123833  60.0878903
   7.3941673  47.2973833  60.8508903   9.2781673  41.5543833  72.2378903
   8.4301673  41.4553833  72.0598903   9.3071673  42.2993833  72.6918903
   9.1571673  41.6503833  72.2788903   3.6461673  37.0873833  61.3438903
   3.3501673  37.5883833  60.6938903   4.5131673  37.1653833  61.2868903
   3.7301673  37.1733833  61.2398903  13.8361673  34.5143833  71.3518903
  13.6781673  35.2833833  70.9698903  13.0641673  34.2943833  71.6958903
  13.6981673  34.5953833  71.3468903   6.6251673  36.2293833  63.5668903
   6.6981673  37.0893833  63.6958903   6.5871673  36.1543833  62.6988903
   6.6301673  36.3453833  63.4578903  11.2981673  39.1553833  55.8658903
  10.8481673  39.8363833  56.1728903  11.4121673  38.6513833  56.5688903
  11.2491673  39.1813833  56.0148903   5.2541673  49.2083833  60.4478903
   4.6751673  48.9333833  61.0398903   5.8781673  48.5993833  60.4728903
   5.2611673  49.0783833  60.5388903  11.3971673  51.4963833  57.9698903
  12.1241673  51.9683833  58.0718903  11.6261673  50.7023833  58.2498903
  11.5391673  51.4493833  58.0268903   9.5651673  51.8883833  59.9598903
   9.7791673  52.4153833  60.6218903  10.3321673  51.7143833  59.5808903
   9.7101673  51.9403833  60.0018903   2.5331673  36.4713833  65.5588903
   2.0121673  35.8433833  65.2508903   3.1241673  36.0343833  66.0298903
   2.5441673  36.3133833  65.5828903   5.8391673  38.6043833  74.8568903
   5.9561673  38.1503833  74.1208903   6.1271673  39.4023833  74.6538903
   5.8991673  38.6553833  74.7178903  16.6921673  39.1283833  62.1608903
  16.3461673  39.8063833  62.5868903  16.0561673  38.5303833  62.1768903
  16.5471673  39.1403833  62.2258903  12.0041673  51.8983833  68.2648903
  12.7481673  52.3543833  68.2548903  11.8831673  51.6843833  67.4278903
  12.0961673  51.9343833  68.1398903   1.7771673  48.5213833  64.3988903
   2.2001673  48.1653833  63.7248903   2.1011673  48.0993833  65.0908903
   1.8871673  48.4063833  64.4018903   5.0081673  51.3733833  63.6948903
   5.8521673  51.4773833  63.4998903   4.7111673  52.1913833  63.7628903
   5.0891673  51.5093833  63.6758903   8.2211673  35.8443833  73.0088903
   8.3991673  35.0353833  72.7338903   8.0781673  36.2853833  72.2698903
   8.2261673  35.7903833  72.8588903   8.8151673  40.7703833  61.7818903
   9.1021673  40.5383833  60.9918903   9.5471673  40.8493833  62.2508903
   8.9651673  40.7473833  61.7348903   9.5371673  41.1093833  56.9028903
   9.8181673  41.8973833  57.1518903   8.7611673  41.2743833  56.5398903
   9.4641673  41.2503833  56.8858903  13.5781673  53.0833833  58.3698903
  14.2431673  52.9353833  57.8248903  13.9381673  53.0003833  59.1598903
  13.7301673  53.0493833  58.4058903   4.0061673  52.5923833  69.4348903
   4.2981673  52.5253833  70.2548903   3.3801673  51.9873833  69.3898903
   3.9571673  52.4933833  69.5498903  16.3671673  37.4513833  67.5298903
  17.1241673  37.5233833  67.1018903  16.4301673  36.6783833  67.9288903
  16.4881673  37.3483833  67.5248903  11.2581673  49.0833833  71.9688903
  11.2241673  49.4653833  72.7528903  12.1121673  49.0413833  71.7978903
  11.3791673  49.1333833  72.0598903   8.3961673  49.2803833  56.7188903
   8.2151673  49.8253833  57.3758903   9.1621673  49.5703833  56.4178903
   8.4821673  49.4043833  56.7718903  11.9031673  37.1763833  57.7728903
  12.4431673  36.4943833  57.8488903  11.9651673  37.5743833  58.5468903
  11.9921673  37.1343833  57.8988903   9.1611673  39.5523833  59.0868903
   8.6531673  38.8903833  58.8328903   9.2131673  40.0563833  58.3768903
   9.0941673  39.5293833  58.9448903   9.7101673  52.2473833  69.4668903
  10.4781673  52.1673833  69.0608903   9.1271673  52.1263833  68.8288903
   9.7371673  52.2173833  69.3128903   9.1611673  36.4933833  58.9778903
   8.7061673  36.0913833  58.3518903   9.9341673  36.6483833  58.6028903
   9.2081673  36.4573833  58.8298903  15.9871673  52.8503833  62.3678903
  15.5321673  53.5673833  62.5688903  15.3731673  52.2793833  62.1258903
  15.8291673  52.8723833  62.3618903   7.7591673  38.8603833  63.4998903
   7.8331673  39.4283833  62.8418903   7.8801673  39.3523833  64.2098903
   7.7871673  39.0173833  63.5078903  12.9841673  48.6953833  61.9118903
  13.6851673  48.2133833  62.1008903  12.3241673  48.1263833  61.9568903
  12.9901673  48.5403833  61.9458903   3.3601673  49.6053833  71.1238903
   4.2011673  49.6683833  70.9018903   3.3231673  50.0023833  71.8998903
   3.4791673  49.6733833  71.2058903   2.3671673  34.6833833  61.8478903
   2.9031673  35.3713833  61.8378903   2.3701673  34.4093833  61.0198903
   2.4461673  34.7443833  61.7238903   5.3231673  45.1163833  65.8728903
   5.4951673  44.9063833  66.7018903   4.6681673  44.5823833  65.6568903
   5.2521673  45.0063833  65.9638903  11.5511673  39.0303833  69.3878903
  11.4561673  39.3493833  70.1938903  10.9581673  38.3913833  69.3498903
  11.4491673  38.9823833  69.5018903   6.0731673  45.0543833  68.4628903
   6.1261673  45.9013833  68.6648903   5.7881673  44.6843833  69.1998903
   6.0391673  45.1243833  68.6008903  12.2501673  45.7493833  67.5928903
  11.7361673  45.3373833  68.1638903  12.1241673  46.5933833  67.7738903
  12.1561673  45.8133833  67.7038903  12.8071673  34.9743833  62.2238903
  12.8561673  34.6563833  63.0348903  13.1301673  34.3303833  61.7308903
  12.8621673  34.8323833  62.2708903  15.2711673  39.2103833  70.5318903
  16.0431673  38.9853833  70.8688903  14.7961673  39.4273833  71.2318903
  15.3151673  39.2093833  70.6848903   2.8151673  38.4933833  63.5018903
   3.0871673  38.0633833  62.7938903   2.6391673  37.8573833  64.0728903
   2.8291673  38.3363833  63.4818903  15.5031673  46.1883833  57.7198903
  15.6221673  45.9013833  58.5348903  16.3101673  46.2093833  57.3898903
  15.6391673  46.1493833  57.7918903   2.6391673  45.9203833  63.0508903
   3.4901673  45.8403833  62.8778903   2.2821673  45.2383833  62.6388903
   2.7121673  45.8073833  62.9638903  17.7371673  50.6973833  71.9738903
  17.0551673  51.0073833  71.5268903  17.3681673  50.2393833  72.6188903
  17.5811673  50.6753833  72.0028903  13.3981673  42.7253833  57.3048903
  13.1781673  43.4563833  56.8828903  12.9501673  42.7763833  58.0518903
  13.2991673  42.8403833  57.3528903   5.0071673  45.9273833  61.2858903
   5.7201673  46.4223833  61.3758903   5.2291673  45.3603833  60.6598903
   5.1451673  45.9163833  61.2068903  17.5851673  37.5863833  56.7578903
  16.9231673  37.0183833  56.7808903  17.3921673  38.0983833  56.0778903
  17.4591673  37.5783833  56.6608903   6.8101673  41.2803833  74.7018903
   6.3261673  41.8573833  75.1438903   6.7821673  41.5753833  73.8808903
   6.7341673  41.4093833  74.6458903  17.9081673  41.9643833  69.3138903
  18.1231673  41.1643833  69.0378903  17.0581673  42.0243833  69.1248903
  17.8141673  41.8553833  69.2448903  15.5871673  37.1443833  59.0368903
  16.3331673  36.7373833  59.2358903  15.8501673  37.8593833  58.6118903
  15.7361673  37.1903833  59.0038903   9.5301673  49.6303833  63.6128903
   9.0071673  50.2643833  63.3198903   9.8401673  49.2663833  62.8838903
   9.4981673  49.6703833  63.4618903   3.6051673  47.4183833  66.3728903
   4.0721673  47.7073833  67.0508903   4.1771673  46.9403833  65.9188903
   3.7591673  47.3903833  66.4058903  12.0411673  39.4323833  64.1098903
  12.3851673  39.5843833  64.8968903  11.5881673  38.6943833  64.2228903
  12.0251673  39.3453833  64.2428903   6.5171673  38.6523833  58.5668903
   6.5151673  38.5353833  57.7018903   6.3361673  39.5003833  58.6588903
   6.4901673  38.7603833  58.4528903  15.5711673  51.0793833  70.0638903
  14.9001673  51.5933833  70.2818903  15.6341673  51.1793833  69.1998903
  15.4811673  51.1703833  69.9688903   4.2551673  48.6043833  63.1988903
   4.3811673  49.4473833  63.3858903   4.9231673  48.2053833  63.5948903
   4.3731673  48.6703833  63.2848903   2.3851673  42.0873833  73.0608903
   1.8491673  41.5813833  73.5288903   2.4051673  41.6973833  72.2808903
   2.3081673  41.9543833  73.0148903   2.8701673  41.4843833  58.2008903
   2.7421673  41.0363833  58.9388903   2.2881673  41.1423833  57.6488903
   2.7651673  41.3673833  58.2288903   3.0371673  43.3143833  64.7998903
   2.2561673  43.2553833  64.4168903   3.1091673  42.5623833  65.2368903
   2.9321673  43.1953833  64.8078903   3.4671673  43.0513833  68.2678903
   3.4921673  42.3763833  67.7168903   2.8211673  43.5473833  67.9558903
   3.3761673  43.0243833  68.1408903  13.3621673  40.7643833  66.6638903
  12.7001673  41.0923833  67.1268903  13.5491673  41.3983833  66.0948903
  13.2921673  40.9063833  66.6478903   7.5671673  51.8283833  67.6598903
   7.2901673  51.1873833  67.1368903   7.3591673  52.5543833  67.2218903
   7.4961673  51.8413833  67.5178903  10.0071673  36.6703833  70.0928903
  10.1561673  35.8453833  69.8498903  10.3861673  36.7253833  70.8768903
  10.0851673  36.5563833  70.1728903  11.5551673  38.7333833  60.1748903
  12.0451673  39.4503833  60.0978903  10.7651673  38.9943833  59.9118903
  11.5111673  38.8773833  60.1248903  12.8691673  46.6113833  72.0848903
  13.3531673  47.3293833  72.1828903  13.2631673  46.1843833  71.4338903
  12.9991673  46.6543833  72.0028903   7.1651673  49.4563833  73.2618903
   7.5191673  49.2783833  74.0388903   6.7291673  48.7273833  73.0628903
   7.1531673  49.3223833  73.3478903   8.1371673  40.2033833  65.8998903
   8.6171673  40.9023833  66.1078903   8.5101673  39.5563833  66.3508903
   8.2631673  40.2113833  65.9968903  10.3261673  43.3723833  58.1738903
  10.3181673  44.0943833  57.6838903   9.6871673  43.5073833  58.7508903
  10.2311673  43.4993833  58.1868903  15.2981673  47.2423833  62.1548903
  15.6541673  46.8923833  62.8698903  15.2901673  46.5813833  61.5848903
  15.3501673  47.0923833  62.1758903  11.3431673  50.3083833  65.9988903
  10.7401673  50.0123833  65.4418903  11.8881673  50.7603833  65.4898903
  11.3341673  50.3313833  65.8408903  11.3561673  47.1593833  65.3988903
  10.5591673  47.3833833  65.6728903  11.6141673  46.5653833  65.9838903
  11.2761673  47.1043833  65.5258903   5.2481673  51.9713833  59.8468903
   5.1011673  51.1953833  60.2178903   5.9371673  51.8243833  59.3318903
   5.3281673  51.8343833  59.8258903   4.9191673  35.7143833  57.8348903
   5.0161673  35.6073833  58.6958903   4.2111673  36.2203833  57.7698903
   4.8291673  35.7733833  57.9528903   7.5401673  51.4873833  58.2488903
   8.1621673  51.6503833  58.8388903   7.5761673  52.1783833  57.7168903
   7.6371673  51.6133833  58.2578903  14.6161673  45.1573833  70.2448903
  14.6711673  45.2823833  69.3828903  15.3691673  45.4773833  70.5468903
  14.7351673  45.2223833  70.1618903  10.8071673  50.5063833  74.5218903
  10.9711673  50.7893833  75.3308903  11.0701673  51.1673833  74.0168903
  10.8701673  50.6463833  74.5668903  15.6481673  35.4553833  73.2318903
  15.0111673  35.0553833  72.7898903  15.6741673  35.0243833  73.9898903
  15.5581673  35.3333833  73.2778903   2.0411673  44.0213833  59.0778903
   2.3651673  43.2423833  58.8558903   2.6871673  44.3893833  59.5328903
   2.1841673  43.9603833  59.1118903  10.3471673  44.9633833  69.8448903
  10.1921673  45.5733833  70.4488903  10.8811673  44.4053833  70.2508903
  10.4031673  44.9713833  69.9938903   8.7311673  43.3633833  60.5028903
   8.7901673  44.0133833  61.0818903   8.5421673  42.6673833  60.9938903
   8.7121673  43.3563833  60.6608903  13.9571673  47.6923833  66.3718903
  13.4781673  47.9903833  65.7058903  13.6011673  46.9163833  66.5498903
  13.8341673  47.6213833  66.2998903   3.2271673  37.8803833  57.0148903
   2.7161673  37.9333833  56.3088903   4.0111673  38.1203833  56.7188903
   3.2671673  37.9233833  56.8668903   7.9541673  45.4103833  64.9338903
   7.1071673  45.2163833  65.0148903   8.2781673  45.2453833  65.7268903
   7.8761673  45.3573833  65.0628903   4.7061673  52.1403833  55.8198903
   5.1451673  51.4433833  56.1078903   4.9131673  52.7643833  56.3928903
   4.8021673  52.1293833  55.9468903   5.0321673  40.2743833  63.9848903
   5.8781673  40.0843833  64.0828903   4.6621673  39.4973833  63.8468903
   5.1021673  40.1313833  63.9788903  17.6491673  51.8583833  58.3118903
  18.3431673  51.3913833  58.0638903  17.1101673  51.2603833  58.6488903
  17.6721673  51.7003833  58.3248903  14.8881673  44.6343833  67.4908903
  14.8811673  43.8583833  67.8888903  14.0471673  44.8683833  67.4838903
  14.7631673  44.5543833  67.5488903   4.3781673  43.0463833  56.1258903
   3.7681673  42.6413833  56.5998903   3.9921673  43.1643833  55.3528903
   4.2311673  43.0033833  56.0818903  16.1441673  44.7053833  64.9278903
  15.8581673  45.1063833  65.6478903  17.0041673  44.6433833  65.0548903
  16.2291673  44.7553833  65.0528903   5.8331673  41.5073833  58.8358903
   6.1051673  42.3333833  58.9028903   4.9701673  41.5823833  58.7398903
   5.7461673  41.6403833  58.8308903  13.8061673  38.6293833  73.4678903
  13.2811673  39.0883833  73.9918903  13.4451673  37.8343833  73.4618903
  13.6751673  38.5793833  73.5438903  17.2751673  50.3383833  65.4568903
  17.5651673  50.5953833  64.6758903  17.9701673  50.4343833  65.9758903
  17.4211673  50.3903833  65.4178903  12.2981673  42.1983833  73.5438903
  12.3711673  42.3023833  74.4068903  11.6641673  42.7563833  73.3228903
  12.2151673  42.2963833  73.6388903  14.5661673  42.5173833  71.9088903
  14.8851673  43.3033833  72.1118903  14.1961673  42.2473833  72.6518903
  14.5591673  42.5933833  72.0488903  13.8801673  48.9413833  57.4388903
  14.2141673  48.1353833  57.4738903  13.1251673  48.8693833  57.8688903
  13.8181673  48.8113833  57.5078903  14.3621673  40.7753833  63.0978903
  13.6171673  40.4523833  63.4158903  14.3641673  41.6013833  63.3778903
  14.2521673  40.8493833  63.1858903  17.2641673  43.0593833  74.6438903
  17.2121673  42.7183833  73.8428903  18.0011673  43.5263833  74.6218903
  17.3651673  43.0783833  74.5218903  16.8021673  46.7353833  70.8498903
  17.4301673  46.1863833  70.5938903  16.7411673  47.3003833  70.1878903
  16.8861673  46.7383833  70.7138903  11.2541673  46.8163833  56.8418903
  11.9381673  46.3023833  56.6728903  10.8371673  46.8623833  56.0768903
  11.2931673  46.7473833  56.7038903   5.9361673  47.9663833  68.1458903
   5.6381673  48.5583833  68.7128903   5.9911673  48.4083833  67.3968903
   5.9001673  48.1193833  68.1188903   3.9151673  46.9163833  71.5438903
   3.1091673  46.6263833  71.7108903   3.8261673  47.7843833  71.5498903
   3.7831673  47.0013833  71.5688903  13.2741673  37.1053833  70.5588903
  14.0181673  37.5573833  70.4958903  12.7081673  37.5753833  70.0898903
  13.3011673  37.2423833  70.4808903   8.4521673  44.3893833  67.6368903
   8.9281673  44.7633833  68.2648903   7.6291673  44.5233833  67.8958903
   8.4011673  44.4643833  67.7678903   5.1621673  39.9923833  70.3778903
   5.3231673  39.2483833  70.8048903   5.1171673  39.7433833  69.5428903
   5.1791673  39.8453833  70.3178903   7.7161673  51.7823833  62.8648903
   8.2621673  52.4613833  62.9188903   7.3661673  51.8643833  62.0698903
   7.7451673  51.8953833  62.7548903  14.5591673  35.0853833  68.2288903
  14.2791673  35.9103833  68.1848903  15.2751673  35.1383833  68.7248903
  14.6241673  35.2153833  68.2958903   6.9141673  35.8003833  70.2578903
   7.6191673  36.1203833  69.8558903   7.1551673  34.9933833  70.4848903
   7.0531673  35.7283833  70.2318903   5.8991673  50.0103833  66.2538903
   5.2751673  50.5923833  66.0718903   6.1471673  49.7243833  65.4678903
   5.8431673  50.0543833  66.1108903  10.2081673  46.6443833  73.2428903
  10.9651673  46.9303833  72.9168903   9.6611673  46.6963833  72.5648903
  10.2391673  46.6943833  73.0938903  14.1171673  49.1943833  71.7468903
  14.4631673  49.4643833  72.5008903  14.4111673  49.7763833  71.1668903
  14.2121673  49.3203833  71.7728903  15.9801673  41.3403833  57.0858903
  16.3581673  42.0173833  56.6858903  15.1381673  41.5643833  57.1168903
  15.9111673  41.4733833  57.0308903   7.4931673  44.7863833  56.1688903
   6.6881673  44.6093833  55.8838903   7.4601673  45.6373833  56.3608903
   7.3691673  44.8853833  56.1558903   3.4231673  40.8533833  66.3188903
   3.8631673  40.7503833  65.5728903   3.9681673  40.5403833  66.9238903
   3.5681673  40.7923833  66.2978903  11.4391673  39.9553833  71.9108903
  10.7911673  40.4253833  72.2588903  12.0041673  39.8663833  72.5698903
  11.4271673  40.0113833  72.0598903  11.1271673  41.4923833  68.2088903
  11.4291673  41.9123833  68.9118903  11.1631673  40.6523833  68.4408903
  11.1771673  41.4303833  68.3468903   8.5521673  51.6593833  72.1338903
   9.0301673  51.0593833  71.7178903   8.2011673  51.2163833  72.7988903
   8.5711673  51.5053833  72.1708903  13.6751673  40.9393833  60.4608903
  13.8821673  40.7383833  61.2848903  14.4311673  41.2073833  60.1188903
  13.8171673  40.9493833  60.5318903   6.9701673  35.8383833  66.3658903
   6.1441673  35.6893833  66.6028903   6.9301673  35.8733833  65.4948903
   6.8421673  35.8213833  66.2718903  14.6971673  37.0223833  61.9348903
  13.9831673  36.5513833  62.1058903  14.5351673  37.3633833  61.1488903
  14.5681673  37.0033833  61.8438903  15.1401673  44.9663833  60.3148903
  15.6161673  44.2373833  60.2668903  14.3191673  44.6803833  60.2388903
  15.0891673  44.8163833  60.2958903   8.6111673  46.8783833  71.1538903
   7.8161673  46.8143833  71.5048903   8.6821673  47.7253833  70.9588903
   8.5041673  46.9933833  71.1768903   4.4411673  53.0853833  66.4708903
   4.4521673  53.1443833  67.3408903   4.0161673  52.3383833  66.3208903
   4.3801673  52.9833833  66.5768903   2.5991673  38.9803833  59.6258903
   2.7251673  38.6513833  58.8278903   1.7871673  38.7313833  59.8248903
   2.4981673  38.8953833  59.5378903  11.3561673  46.1333833  62.6698903
  11.4321673  46.4743833  63.4688903  11.5251673  45.2863833  62.7908903
  11.3921673  46.0583833  62.8058903   8.8781673  45.4073833  62.2348903
   8.5801673  45.0923833  62.9918903   9.5731673  45.8803833  62.4698903
   8.9371673  45.4303833  62.3818903   9.1001673  49.5253833  70.2618903
   9.7871673  49.4113833  70.7868903   9.2341673  50.3163833  69.9178903
   9.2211673  49.6253833  70.2888903  17.2761673  42.1343833  72.0728903
  16.4211673  42.0123833  72.1988903  17.4291673  41.7393833  71.3098903
  17.1721673  42.0573833  71.9788903  11.7891673  42.7993833  70.6488903
  11.5341673  42.0803833  71.0708903  12.6101673  42.9153833  70.9188903
  11.8731673  42.7103833  70.7508903   9.7231673  43.9893833  73.8358903
  10.0461673  44.6753833  73.4038903   9.0191673  44.3123833  74.2378903
   9.6661673  44.1383833  73.8308903  12.8071673  52.3633833  64.7648903
  12.3561673  53.0063833  65.1438903  13.5151673  52.2843833  65.2698903
  12.8451673  52.4463833  64.8958903   9.5081673  47.4533833  67.6948903
   8.8141673  47.8553833  68.0378903  10.1851673  47.8863833  68.0338903
   9.5051673  47.5763833  67.7958903  14.8851673  50.0463833  74.2748903
  15.6611673  49.6563833  74.3578903  14.4161673  49.7103833  74.9298903
  14.9301673  49.9393833  74.3838903   2.5761673  40.9913833  70.0418903
   2.9511673  41.6103833  69.5548903   3.2501673  40.5173833  70.3268903
   2.7311673  41.0133833  70.0118903  15.9101673  42.0793833  59.7568903
  16.0131673  42.0213833  58.8928903  16.6511673  41.7473833  60.0748903
  16.0351673  42.0223833  59.6758903   2.9051673  36.8493833  71.7278903
   2.8241673  36.0053833  71.9338903   2.5911673  36.8933833  70.9148903
   2.8471673  36.7313833  71.6378903   9.8301673  49.0443833  60.8638903
   9.6251673  49.8773833  60.7048903   9.0551673  48.6623833  60.9858903
   9.6851673  49.1113833  60.8588903  15.0121673  42.2253833  69.1128903
  15.0101673  41.3623833  69.2368903  15.0791673  42.5493833  69.9198903
  15.0221673  42.1453833  69.2498903  10.8911673  37.0253833  72.8948903
  10.9831673  37.7373833  73.3888903  10.2541673  36.5803833  73.2918903
  10.8101673  37.0643833  73.0268903   9.8851673  37.2153833  63.7488903
   9.1851673  37.7333833  63.6928903   9.9231673  36.8353833  62.9648903
   9.7871673  37.2363833  63.6248903   5.1921673  49.3063833  57.2728903
   5.6331673  49.3863833  58.0208903   4.3871673  49.0903833  57.5308903
   5.1381673  49.2863833  57.4218903  13.4831673  37.7313833  66.5488903
  14.3381673  37.8303833  66.6938903  13.1141673  38.2843833  67.1138903
  13.5551673  37.8283833  66.6538903   4.5111673  43.9573833  70.9258903
   4.1151673  44.7313833  71.0008903   4.1051673  43.5843833  70.2498903
   4.3931673  44.0163833  70.8368903  13.7871673  43.0113833  65.0398903
  14.4531673  43.5523833  65.1998903  13.4421673  43.3223833  64.3008903
  13.8341673  43.1373833  64.9548903  14.1001673  51.0773833  60.8468903
  13.9261673  50.4233833  61.3968903  14.8131673  50.8063833  60.4238903
  14.1801673  50.9403833  60.8658903   2.5211673  48.3763833  57.8738903
   2.2771673  48.0693833  58.6538903   2.4881673  47.6733833  57.3578903
   2.4801673  48.2273833  57.9128903   5.3401673  46.6213833  56.6168903
   4.5221673  46.3533833  56.7568903   5.3121673  47.4733833  56.8018903
   5.2151673  46.7083833  56.6648903   4.9401673  36.9343833  68.3758903
   4.0761673  37.0183833  68.4558903   5.1601673  36.4203833  69.0448903
   4.8451673  36.8713833  68.4868903  16.9581673  35.5693833  69.7048903
  16.9061673  35.5253833  70.5748903  17.6451673  35.0663833  69.5148903
  17.0521673  35.4893833  69.8048903   9.0431673  37.6823833  66.7498903
   8.3061673  37.2283833  66.8628903   9.6141673  37.2803833  67.2728903
   9.0181673  37.5553833  66.8438903  11.7751673  48.5303833  68.5378903
  11.9811673  48.8313833  69.3298903  11.7141673  49.2523833  68.0528903
  11.7961673  48.6813833  68.5828903  11.3091673  52.7443833  72.7838903
  10.5561673  52.7263833  72.3428903  11.4771673  53.5963833  72.8678903
  11.2231673  52.8673833  72.7308903   6.5461673  42.0113833  71.9538903
   6.2241673  41.4353833  71.3838903   6.1871673  42.7663833  71.7078903
   6.4461673  42.0373833  71.8338903   7.3421673  35.2633833  56.5808903
   7.4201673  35.5103833  55.7478903   6.5991673  35.6403833  56.8388903
   7.2441673  35.3553833  56.4958903  16.5871673  47.1693833  67.9958903
  16.5551673  46.3073833  67.8608903  15.8941673  47.4713833  67.5618903
  16.4801673  47.0863833  67.9118903   4.9811673  52.3673833  72.2018903
   5.0221673  52.4933833  73.0648903   5.6321673  51.8073833  72.0458903
   5.0831673  52.3033833  72.3068903  14.6921673  50.4293833  66.7928903
  15.2191673  50.3463833  66.1018903  14.3011673  49.6513833  66.8468903
  14.7121673  50.3023833  66.6988903  11.2061673  35.8733833  66.0008903
  11.8761673  36.4173833  66.1278903  10.7031673  36.2973833  65.4278903
  11.2311673  36.0163833  65.9348903   2.5741673  50.7503833  73.5618903
   3.1691673  51.1813833  74.0338903   2.2101673  51.3743833  73.0728903
   2.6081673  50.9063833  73.5588903  10.5651673  41.6813833  63.4938903
  11.1161673  41.0743833  63.7938903  10.1401673  41.9443833  64.2088903
  10.5841673  41.6303833  63.6428903  12.5351673  43.5123833  60.0558903
  12.6031673  42.6623833  60.2368903  11.7121673  43.5983833  59.7778903
  12.4231673  43.3993833  60.0418903   2.2871673  52.0063833  59.2658903
   2.1421673  52.1623833  58.4198903   3.1531673  52.0853833  59.3438903
   2.3941673  52.0413833  59.1528903   6.4541673  44.4033833  58.9938903
   6.5541673  44.5423833  58.1388903   7.2721673  44.3433833  59.2898903
   6.5891673  44.4143833  58.9108903  15.6141673  52.4673833  56.4738903
  16.2511673  52.3333833  57.0548903  15.2731673  51.6733833  56.3568903
  15.6581673  52.3303833  56.5418903  15.8091673  44.8853833  73.2068903
  16.4431673  44.7153833  73.7808903  16.2261673  45.2883833  72.5548903
  15.9641673  44.9203833  73.1958903  11.6891673  48.7323833  58.7958903
  11.4381673  48.6043833  59.6218903  11.3721673  48.0373833  58.3748903
  11.6051673  48.6113833  58.8558903  16.4341673  39.4493833  73.9448903
  16.2381673  40.0933833  74.4998903  15.7121673  38.9593833  73.9368903
  16.2991673  39.4723833  74.0258903  16.3331673  40.3903833  66.9158903
  15.5001673  40.6403833  66.8438903  16.2771673  39.5503833  67.1448903
  16.2021673  40.3033833  66.9388903   5.5931673  37.3783833  72.1098903
   5.8271673  36.8023833  71.4968903   4.7511673  37.1973833  72.2508903
   5.5031673  37.2663833  72.0398903  13.2201673  44.9963833  74.5618903
  14.0911673  44.9603833  74.5258903  13.0011673  45.4163833  73.8298903
  13.3171673  45.0523833  74.4488903   2.9741673  50.8213833  65.7428903
   2.8951673  50.0113833  65.4268903   2.5301673  51.3083833  65.1708903
   2.8971673  50.7733833  65.6118903   8.5751673  46.9403833  58.2258903
   9.2921673  46.5933833  57.8698903   8.5411673  47.7403833  57.8778903
   8.6761673  47.0073833  58.1218903   9.9841673  35.5813833  42.4646493
   9.7391673  36.0693833  41.7846493  10.8471673  35.5083833  42.3646493
  10.0751673  35.6423833  42.3496493   9.7931673  42.4973833  47.1356493
   9.2691673  43.0933833  47.4986493  10.1901673  42.1293833  47.8196493
   9.7741673  42.5313833  47.2906493  15.9371673  49.9383833  40.1066493
  16.6381673  49.4193833  40.1026493  15.3501673  49.4933833  39.6376493
  15.9541673  49.7953833  40.0366493   2.5441673  45.6923833  37.7706493
   2.1521673  45.3213833  37.0846493   2.4641673  45.0943833  38.3996493
   2.4741673  45.5493833  37.7616493  12.4641673  43.5643833  43.8116493
  12.5441673  43.5683833  42.9426493  11.8801673  42.9323833  43.9606493
  12.3891673  43.4713833  43.7056493   6.4531673  36.6683833  41.6196493
   6.3831673  37.3453833  41.0736493   7.1941673  36.2803833  41.3706493
   6.5521673  36.7113833  41.5016493   6.1761673  46.8973833  53.9136493
   5.9401673  46.8943833  54.7536493   5.4281673  46.7493833  53.4896493
   6.0301673  46.8743833  53.9746493   5.5561673  39.5033833  48.3956493
   6.2341673  39.5213833  47.8466493   5.5111673  38.6673833  48.6406493
   5.6491673  39.3823833  48.3506493   6.1581673  50.0893833  51.1766493
   6.2961673  50.8493833  50.7696493   6.9491673  49.7243833  51.2036493
   6.2951673  50.1483833  51.1206493   3.0491673  41.9933833  43.0716493
   3.8661673  41.8063833  43.3146493   2.5721673  41.3793833  43.4676493
   3.0991673  41.8753833  43.1666493   7.2531673  47.9743833  45.6816493
   7.6011673  47.1753833  45.7116493   7.9181673  48.4783833  45.4266493
   7.4031673  47.9303833  45.6486493   7.3101673  47.4233833  41.8926493
   7.6411673  46.7793833  42.3786493   7.5501673  47.2123833  41.0816493
   7.3941673  47.2973833  41.8446493   9.2781673  41.5543833  53.2316493
   8.4301673  41.4553833  53.0536493   9.3071673  42.2993833  53.6856493
   9.1571673  41.6503833  53.2726493   3.6461673  37.0873833  42.3376493
   3.3501673  37.5883833  41.6876493   4.5131673  37.1653833  42.2806493
   3.7301673  37.1733833  42.2336493  13.8361673  34.5143833  52.3456493
  13.6781673  35.2833833  51.9636493  13.0641673  34.2943833  52.6896493
  13.6981673  34.5953833  52.3406493   6.6251673  36.2293833  44.5606493
   6.6981673  37.0893833  44.6896493   6.5871673  36.1543833  43.6926493
   6.6301673  36.3453833  44.4516493  11.2981673  39.1553833  36.8596493
  10.8481673  39.8363833  37.1666493  11.4121673  38.6513833  37.5626493
  11.2491673  39.1813833  37.0086493   5.2541673  49.2083833  41.4416493
   4.6751673  48.9333833  42.0336493   5.8781673  48.5993833  41.4666493
   5.2611673  49.0783833  41.5326493  11.3971673  51.4963833  38.9636493
  12.1241673  51.9683833  39.0656493  11.6261673  50.7023833  39.2436493
  11.5391673  51.4493833  39.0206493   9.5651673  51.8883833  40.9536493
   9.7791673  52.4153833  41.6156493  10.3321673  51.7143833  40.5746493
   9.7101673  51.9403833  40.9956493   2.5331673  36.4713833  46.5526493
   2.0121673  35.8433833  46.2446493   3.1241673  36.0343833  47.0236493
   2.5441673  36.3133833  46.5766493   5.8391673  38.6043833  55.8506493
   5.9561673  38.1503833  55.1146493   6.1271673  39.4023833  55.6476493
   5.8991673  38.6553833  55.7116493  16.6921673  39.1283833  43.1546493
  16.3461673  39.8063833  43.5806493  16.0561673  38.5303833  43.1706493
  16.5471673  39.1403833  43.2196493  12.0041673  51.8983833  49.2586493
  12.7481673  52.3543833  49.2486493  11.8831673  51.6843833  48.4216493
  12.0961673  51.9343833  49.1336493   1.7771673  48.5213833  45.3926493
   2.2001673  48.1653833  44.7186493   2.1011673  48.0993833  46.0846493
   1.8871673  48.4063833  45.3956493   5.0081673  51.3733833  44.6886493
   5.8521673  51.4773833  44.4936493   4.7111673  52.1913833  44.7566493
   5.0891673  51.5093833  44.6696493   8.2211673  35.8443833  54.0026493
   8.3991673  35.0353833  53.7276493   8.0781673  36.2853833  53.2636493
   8.2261673  35.7903833  53.8526493   8.8151673  40.7703833  42.7756493
   9.1021673  40.5383833  41.9856493   9.5471673  40.8493833  43.2446493
   8.9651673  40.7473833  42.7286493   9.5371673  41.1093833  37.8966493
   9.8181673  41.8973833  38.1456493   8.7611673  41.2743833  37.5336493
   9.4641673  41.2503833  37.8796493  13.5781673  53.0833833  39.3636493
  14.2431673  52.9353833  38.8186493  13.9381673  53.0003833  40.1536493
  13.7301673  53.0493833  39.3996493   4.0061673  52.5923833  50.4286493
   4.2981673  52.5253833  51.2486493   3.3801673  51.9873833  50.3836493
   3.9571673  52.4933833  50.5436493  16.3671673  37.4513833  48.5236493
  17.1241673  37.5233833  48.0956493  16.4301673  36.6783833  48.9226493
  16.4881673  37.3483833  48.5186493  11.2581673  49.0833833  52.9626493
  11.2241673  49.4653833  53.7466493  12.1121673  49.0413833  52.7916493
  11.3791673  49.1333833  53.0536493   8.3961673  49.2803833  37.7126493
   8.2151673  49.8253833  38.3696493   9.1621673  49.5703833  37.4116493
   8.4821673  49.4043833  37.7656493  11.9031673  37.1763833  38.7666493
  12.4431673  36.4943833  38.8426493  11.9651673  37.5743833  39.5406493
  11.9921673  37.1343833  38.8926493   9.1611673  39.5523833  40.0806493
   8.6531673  38.8903833  39.8266493   9.2131673  40.0563833  39.3706493
   9.0941673  39.5293833  39.9386493   9.7101673  52.2473833  50.4606493
  10.4781673  52.1673833  50.0546493   9.1271673  52.1263833  49.8226493
   9.7371673  52.2173833  50.3066493   9.1611673  36.4933833  39.9716493
   8.7061673  36.0913833  39.3456493   9.9341673  36.6483833  39.5966493
   9.2081673  36.4573833  39.8236493  15.9871673  52.8503833  43.3616493
  15.5321673  53.5673833  43.5626493  15.3731673  52.2793833  43.1196493
  15.8291673  52.8723833  43.3556493   7.7591673  38.8603833  44.4936493
   7.8331673  39.4283833  43.8356493   7.8801673  39.3523833  45.2036493
   7.7871673  39.0173833  44.5016493  12.9841673  48.6953833  42.9056493
  13.6851673  48.2133833  43.0946493  12.3241673  48.1263833  42.9506493
  12.9901673  48.5403833  42.9396493   3.3601673  49.6053833  52.1176493
   4.2011673  49.6683833  51.8956493   3.3231673  50.0023833  52.8936493
   3.4791673  49.6733833  52.1996493   2.3671673  34.6833833  42.8416493
   2.9031673  35.3713833  42.8316493   2.3701673  34.4093833  42.0136493
   2.4461673  34.7443833  42.7176493   5.3231673  45.1163833  46.8666493
   5.4951673  44.9063833  47.6956493   4.6681673  44.5823833  46.6506493
   5.2521673  45.0063833  46.9576493  11.5511673  39.0303833  50.3816493
  11.4561673  39.3493833  51.1876493  10.9581673  38.3913833  50.3436493
  11.4491673  38.9823833  50.4956493   6.0731673  45.0543833  49.4566493
   6.1261673  45.9013833  49.6586493   5.7881673  44.6843833  50.1936493
   6.0391673  45.1243833  49.5946493  12.2501673  45.7493833  48.5866493
  11.7361673  45.3373833  49.1576493  12.1241673  46.5933833  48.7676493
  12.1561673  45.8133833  48.6976493  12.8071673  34.9743833  43.2176493
  12.8561673  34.6563833  44.0286493  13.1301673  34.3303833  42.7246493
  12.8621673  34.8323833  43.2646493  15.2711673  39.2103833  51.5256493
  16.0431673  38.9853833  51.8626493  14.7961673  39.4273833  52.2256493
  15.3151673  39.2093833  51.6786493   2.8151673  38.4933833  44.4956493
   3.0871673  38.0633833  43.7876493   2.6391673  37.8573833  45.0666493
   2.8291673  38.3363833  44.4756493  15.5031673  46.1883833  38.7136493
  15.6221673  45.9013833  39.5286493  16.3101673  46.2093833  38.3836493
  15.6391673  46.1493833  38.7856493   2.6391673  45.9203833  44.0446493
   3.4901673  45.8403833  43.8716493   2.2821673  45.2383833  43.6326493
   2.7121673  45.8073833  43.9576493  13.3981673  42.7253833  38.2986493
  13.1781673  43.4563833  37.8766493  12.9501673  42.7763833  39.0456493
  13.2991673  42.8403833  38.3466493   5.0071673  45.9273833  42.2796493
   5.7201673  46.4223833  42.3696493   5.2291673  45.3603833  41.6536493
   5.1451673  45.9163833  42.2006493  17.5851673  37.5863833  37.7516493
  16.9231673  37.0183833  37.7746493  17.3921673  38.0983833  37.0716493
  17.4591673  37.5783833  37.6546493   6.8101673  41.2803833  55.6956493
   6.3261673  41.8573833  56.1376493   6.7821673  41.5753833  54.8746493
   6.7341673  41.4093833  55.6396493  17.9081673  41.9643833  50.3076493
  18.1231673  41.1643833  50.0316493  17.0581673  42.0243833  50.1186493
  17.8141673  41.8553833  50.2386493  15.5871673  37.1443833  40.0306493
  16.3331673  36.7373833  40.2296493  15.8501673  37.8593833  39.6056493
  15.7361673  37.1903833  39.9976493   9.5301673  49.6303833  44.6066493
   9.0071673  50.2643833  44.3136493   9.8401673  49.2663833  43.8776493
   9.4981673  49.6703833  44.4556493   3.6051673  47.4183833  47.3666493
   4.0721673  47.7073833  48.0446493   4.1771673  46.9403833  46.9126493
   3.7591673  47.3903833  47.3996493  12.0411673  39.4323833  45.1036493
  12.3851673  39.5843833  45.8906493  11.5881673  38.6943833  45.2166493
  12.0251673  39.3453833  45.2366493   6.5171673  38.6523833  39.5606493
   6.5151673  38.5353833  38.6956493   6.3361673  39.5003833  39.6526493
   6.4901673  38.7603833  39.4466493  15.5711673  51.0793833  51.0576493
  14.9001673  51.5933833  51.2756493  15.6341673  51.1793833  50.1936493
  15.4811673  51.1703833  50.9626493   4.2551673  48.6043833  44.1926493
   4.3811673  49.4473833  44.3796493   4.9231673  48.2053833  44.5886493
   4.3731673  48.6703833  44.2786493   2.3851673  42.0873833  54.0546493
   1.8491673  41.5813833  54.5226493   2.4051673  41.6973833  53.2746493
   2.3081673  41.9543833  54.0086493   2.8701673  41.4843833  39.1946493
   2.7421673  41.0363833  39.9326493   2.2881673  41.1423833  38.6426493
   2.7651673  41.3673833  39.2226493   3.0371673  43.3143833  45.7936493
   2.2561673  43.2553833  45.4106493   3.1091673  42.5623833  46.2306493
   2.9321673  43.1953833  45.8016493   3.4671673  43.0513833  49.2616493
   3.4921673  42.3763833  48.7106493   2.8211673  43.5473833  48.9496493
   3.3761673  43.0243833  49.1346493  13.3621673  40.7643833  47.6576493
  12.7001673  41.0923833  48.1206493  13.5491673  41.3983833  47.0886493
  13.2921673  40.9063833  47.6416493   7.5671673  51.8283833  48.6536493
   7.2901673  51.1873833  48.1306493   7.3591673  52.5543833  48.2156493
   7.4961673  51.8413833  48.5116493  10.0071673  36.6703833  51.0866493
  10.1561673  35.8453833  50.8436493  10.3861673  36.7253833  51.8706493
  10.0851673  36.5563833  51.1666493  11.5551673  38.7333833  41.1686493
  12.0451673  39.4503833  41.0916493  10.7651673  38.9943833  40.9056493
  11.5111673  38.8773833  41.1186493  12.8691673  46.6113833  53.0786493
  13.3531673  47.3293833  53.1766493  13.2631673  46.1843833  52.4276493
  12.9991673  46.6543833  52.9966493   7.1651673  49.4563833  54.2556493
   7.5191673  49.2783833  55.0326493   6.7291673  48.7273833  54.0566493
   7.1531673  49.3223833  54.3416493   8.1371673  40.2033833  46.8936493
   8.6171673  40.9023833  47.1016493   8.5101673  39.5563833  47.3446493
   8.2631673  40.2113833  46.9906493  10.3261673  43.3723833  39.1676493
  10.3181673  44.0943833  38.6776493   9.6871673  43.5073833  39.7446493
  10.2311673  43.4993833  39.1806493  15.2981673  47.2423833  43.1486493
  15.6541673  46.8923833  43.8636493  15.2901673  46.5813833  42.5786493
  15.3501673  47.0923833  43.1696493  11.3431673  50.3083833  46.9926493
  10.7401673  50.0123833  46.4356493  11.8881673  50.7603833  46.4836493
  11.3341673  50.3313833  46.8346493  11.3561673  47.1593833  46.3926493
  10.5591673  47.3833833  46.6666493  11.6141673  46.5653833  46.9776493
  11.2761673  47.1043833  46.5196493   5.2481673  51.9713833  40.8406493
   5.1011673  51.1953833  41.2116493   5.9371673  51.8243833  40.3256493
   5.3281673  51.8343833  40.8196493   4.9191673  35.7143833  38.8286493
   5.0161673  35.6073833  39.6896493   4.2111673  36.2203833  38.7636493
   4.8291673  35.7733833  38.9466493   7.5401673  51.4873833  39.2426493
   8.1621673  51.6503833  39.8326493   7.5761673  52.1783833  38.7106493
   7.6371673  51.6133833  39.2516493  14.6161673  45.1573833  51.2386493
  14.6711673  45.2823833  50.3766493  15.3691673  45.4773833  51.5406493
  14.7351673  45.2223833  51.1556493  10.8071673  50.5063833  55.5156493
  10.9711673  50.7893833  56.3246493  11.0701673  51.1673833  55.0106493
  10.8701673  50.6463833  55.5606493  15.6481673  35.4553833  54.2256493
  15.0111673  35.0553833  53.7836493  15.6741673  35.0243833  54.9836493
  15.5581673  35.3333833  54.2716493   2.0411673  44.0213833  40.0716493
   2.3651673  43.2423833  39.8496493   2.6871673  44.3893833  40.5266493
   2.1841673  43.9603833  40.1056493  10.3471673  44.9633833  50.8386493
  10.1921673  45.5733833  51.4426493  10.8811673  44.4053833  51.2446493
  10.4031673  44.9713833  50.9876493   8.7311673  43.3633833  41.4966493
   8.7901673  44.0133833  42.0756493   8.5421673  42.6673833  41.9876493
   8.7121673  43.3563833  41.6546493  13.9571673  47.6923833  47.3656493
  13.4781673  47.9903833  46.6996493  13.6011673  46.9163833  47.5436493
  13.8341673  47.6213833  47.2936493   3.2271673  37.8803833  38.0086493
   2.7161673  37.9333833  37.3026493   4.0111673  38.1203833  37.7126493
   3.2671673  37.9233833  37.8606493   7.9541673  45.4103833  45.9276493
   7.1071673  45.2163833  46.0086493   8.2781673  45.2453833  46.7206493
   7.8761673  45.3573833  46.0566493   4.7061673  52.1403833  36.8136493
   5.1451673  51.4433833  37.1016493   4.9131673  52.7643833  37.3866493
   4.8021673  52.1293833  36.9406493   5.0321673  40.2743833  44.9786493
   5.8781673  40.0843833  45.0766493   4.6621673  39.4973833  44.8406493
   5.1021673  40.1313833  44.9726493  17.6491673  51.8583833  39.3056493
  18.3431673  51.3913833  39.0576493  17.1101673  51.2603833  39.6426493
  17.6721673  51.7003833  39.3186493  14.8881673  44.6343833  48.4846493
  14.8811673  43.8583833  48.8826493  14.0471673  44.8683833  48.4776493
  14.7631673  44.5543833  48.5426493   4.3781673  43.0463833  37.1196493
   3.7681673  42.6413833  37.5936493   3.9921673  43.1643833  36.3466493
   4.2311673  43.0033833  37.0756493  16.1441673  44.7053833  45.9216493
  15.8581673  45.1063833  46.6416493  17.0041673  44.6433833  46.0486493
  16.2291673  44.7553833  46.0466493   5.8331673  41.5073833  39.8296493
   6.1051673  42.3333833  39.8966493   4.9701673  41.5823833  39.7336493
   5.7461673  41.6403833  39.8246493  13.8061673  38.6293833  54.4616493
  13.2811673  39.0883833  54.9856493  13.4451673  37.8343833  54.4556493
  13.6751673  38.5793833  54.5376493  17.2751673  50.3383833  46.4506493
  17.5651673  50.5953833  45.6696493  17.9701673  50.4343833  46.9696493
  17.4211673  50.3903833  46.4116493  12.2981673  42.1983833  54.5376493
  12.3711673  42.3023833  55.4006493  11.6641673  42.7563833  54.3166493
  12.2151673  42.2963833  54.6326493  14.5661673  42.5173833  52.9026493
  14.8851673  43.3033833  53.1056493  14.1961673  42.2473833  53.6456493
  14.5591673  42.5933833  53.0426493  13.8801673  48.9413833  38.4326493
  14.2141673  48.1353833  38.4676493  13.1251673  48.8693833  38.8626493
  13.8181673  48.8113833  38.5016493  14.3621673  40.7753833  44.0916493
  13.6171673  40.4523833  44.4096493  14.3641673  41.6013833  44.3716493
  14.2521673  40.8493833  44.1796493  17.2641673  43.0593833  55.6376493
  17.2121673  42.7183833  54.8366493  18.0011673  43.5263833  55.6156493
  17.3651673  43.0783833  55.5156493  16.8021673  46.7353833  51.8436493
  17.4301673  46.1863833  51.5876493  16.7411673  47.3003833  51.1816493
  16.8861673  46.7383833  51.7076493  11.2541673  46.8163833  37.8356493
  11.9381673  46.3023833  37.6666493  10.8371673  46.8623833  37.0706493
  11.2931673  46.7473833  37.6976493   5.9361673  47.9663833  49.1396493
   5.6381673  48.5583833  49.7066493   5.9911673  48.4083833  48.3906493
   5.9001673  48.1193833  49.1126493   3.9151673  46.9163833  52.5376493
   3.1091673  46.6263833  52.7046493   3.8261673  47.7843833  52.5436493
   3.7831673  47.0013833  52.5626493  13.2741673  37.1053833  51.5526493
  14.0181673  37.5573833  51.4896493  12.7081673  37.5753833  51.0836493
  13.3011673  37.2423833  51.4746493   8.4521673  44.3893833  48.6306493
   8.9281673  44.7633833  49.2586493   7.6291673  44.5233833  48.8896493
   8.4011673  44.4643833  48.7616493   5.1621673  39.9923833  51.3716493
   5.3231673  39.2483833  51.7986493   5.1171673  39.7433833  50.5366493
   5.1791673  39.8453833  51.3116493   7.7161673  51.7823833  43.8586493
   8.2621673  52.4613833  43.9126493   7.3661673  51.8643833  43.0636493
   7.7451673  51.8953833  43.7486493  14.5591673  35.0853833  49.2226493
  14.2791673  35.9103833  49.1786493  15.2751673  35.1383833  49.7186493
  14.6241673  35.2153833  49.2896493   6.9141673  35.8003833  51.2516493
   7.6191673  36.1203833  50.8496493   7.1551673  34.9933833  51.4786493
   7.0531673  35.7283833  51.2256493   5.8991673  50.0103833  47.2476493
   5.2751673  50.5923833  47.0656493   6.1471673  49.7243833  46.4616493
   5.8431673  50.0543833  47.1046493  10.2081673  46.6443833  54.2366493
  10.9651673  46.9303833  53.9106493   9.6611673  46.6963833  53.5586493
  10.2391673  46.6943833  54.0876493  14.1171673  49.1943833  52.7406493
  14.4631673  49.4643833  53.4946493  14.4111673  49.7763833  52.1606493
  14.2121673  49.3203833  52.7666493  15.9801673  41.3403833  38.0796493
  16.3581673  42.0173833  37.6796493  15.1381673  41.5643833  38.1106493
  15.9111673  41.4733833  38.0246493   7.4931673  44.7863833  37.1626493
   6.6881673  44.6093833  36.8776493   7.4601673  45.6373833  37.3546493
   7.3691673  44.8853833  37.1496493   3.4231673  40.8533833  47.3126493
   3.8631673  40.7503833  46.5666493   3.9681673  40.5403833  47.9176493
   3.5681673  40.7923833  47.2916493  11.4391673  39.9553833  52.9046493
  10.7911673  40.4253833  53.2526493  12.0041673  39.8663833  53.5636493
  11.4271673  40.0113833  53.0536493  11.1271673  41.4923833  49.2026493
  11.4291673  41.9123833  49.9056493  11.1631673  40.6523833  49.4346493
  11.1771673  41.4303833  49.3406493   8.5521673  51.6593833  53.1276493
   9.0301673  51.0593833  52.7116493   8.2011673  51.2163833  53.7926493
   8.5711673  51.5053833  53.1646493  13.6751673  40.9393833  41.4546493
  13.8821673  40.7383833  42.2786493  14.4311673  41.2073833  41.1126493
  13.8171673  40.9493833  41.5256493   6.9701673  35.8383833  47.3596493
   6.1441673  35.6893833  47.5966493   6.9301673  35.8733833  46.4886493
   6.8421673  35.8213833  47.2656493  14.6971673  37.0223833  42.9286493
  13.9831673  36.5513833  43.0996493  14.5351673  37.3633833  42.1426493
  14.5681673  37.0033833  42.8376493  15.1401673  44.9663833  41.3086493
  15.6161673  44.2373833  41.2606493  14.3191673  44.6803833  41.2326493
  15.0891673  44.8163833  41.2896493   8.6111673  46.8783833  52.1476493
   7.8161673  46.8143833  52.4986493   8.6821673  47.7253833  51.9526493
   8.5041673  46.9933833  52.1706493   4.4411673  53.0853833  47.4646493
   4.4521673  53.1443833  48.3346493   4.0161673  52.3383833  47.3146493
   4.3801673  52.9833833  47.5706493   2.5991673  38.9803833  40.6196493
   2.7251673  38.6513833  39.8216493   1.7871673  38.7313833  40.8186493
   2.4981673  38.8953833  40.5316493  11.3561673  46.1333833  43.6636493
  11.4321673  46.4743833  44.4626493  11.5251673  45.2863833  43.7846493
  11.3921673  46.0583833  43.7996493   8.8781673  45.4073833  43.2286493
   8.5801673  45.0923833  43.9856493   9.5731673  45.8803833  43.4636493
   8.9371673  45.4303833  43.3756493   9.1001673  49.5253833  51.2556493
   9.7871673  49.4113833  51.7806493   9.2341673  50.3163833  50.9116493
   9.2211673  49.6253833  51.2826493  17.2761673  42.1343833  53.0666493
  16.4211673  42.0123833  53.1926493  17.4291673  41.7393833  52.3036493
  17.1721673  42.0573833  52.9726493  11.7891673  42.7993833  51.6426493
  11.5341673  42.0803833  52.0646493  12.6101673  42.9153833  51.9126493
  11.8731673  42.7103833  51.7446493   9.7231673  43.9893833  54.8296493
  10.0461673  44.6753833  54.3976493   9.0191673  44.3123833  55.2316493
   9.6661673  44.1383833  54.8246493  12.8071673  52.3633833  45.7586493
  12.3561673  53.0063833  46.1376493  13.5151673  52.2843833  46.2636493
  12.8451673  52.4463833  45.8896493   9.5081673  47.4533833  48.6886493
   8.8141673  47.8553833  49.0316493  10.1851673  47.8863833  49.0276493
   9.5051673  47.5763833  48.7896493  14.8851673  50.0463833  55.2686493
  15.6611673  49.6563833  55.3516493  14.4161673  49.7103833  55.9236493
  14.9301673  49.9393833  55.3776493   2.5761673  40.9913833  51.0356493
   2.9511673  41.6103833  50.5486493   3.2501673  40.5173833  51.3206493
   2.7311673  41.0133833  51.0056493  15.9101673  42.0793833  40.7506493
  16.0131673  42.0213833  39.8866493  16.6511673  41.7473833  41.0686493
  16.0351673  42.0223833  40.6696493   2.9051673  36.8493833  52.7216493
   2.8241673  36.0053833  52.9276493   2.5911673  36.8933833  51.9086493
   2.8471673  36.7313833  52.6316493   9.8301673  49.0443833  41.8576493
   9.6251673  49.8773833  41.6986493   9.0551673  48.6623833  41.9796493
   9.6851673  49.1113833  41.8526493  15.0121673  42.2253833  50.1066493
  15.0101673  41.3623833  50.2306493  15.0791673  42.5493833  50.9136493
  15.0221673  42.1453833  50.2436493  10.8911673  37.0253833  53.8886493
  10.9831673  37.7373833  54.3826493  10.2541673  36.5803833  54.2856493
  10.8101673  37.0643833  54.0206493   9.8851673  37.2153833  44.7426493
   9.1851673  37.7333833  44.6866493   9.9231673  36.8353833  43.9586493
   9.7871673  37.2363833  44.6186493   5.1921673  49.3063833  38.2666493
   5.6331673  49.3863833  39.0146493   4.3871673  49.0903833  38.5246493
   5.1381673  49.2863833  38.4156493  13.4831673  37.7313833  47.5426493
  14.3381673  37.8303833  47.6876493  13.1141673  38.2843833  48.1076493
  13.5551673  37.8283833  47.6476493   4.5111673  43.9573833  51.9196493
   4.1151673  44.7313833  51.9946493   4.1051673  43.5843833  51.2436493
   4.3931673  44.0163833  51.8306493  13.7871673  43.0113833  46.0336493
  14.4531673  43.5523833  46.1936493  13.4421673  43.3223833  45.2946493
  13.8341673  43.1373833  45.9486493  14.1001673  51.0773833  41.8406493
  13.9261673  50.4233833  42.3906493  14.8131673  50.8063833  41.4176493
  14.1801673  50.9403833  41.8596493   2.5211673  48.3763833  38.8676493
   2.2771673  48.0693833  39.6476493   2.4881673  47.6733833  38.3516493
   2.4801673  48.2273833  38.9066493   5.3401673  46.6213833  37.6106493
   4.5221673  46.3533833  37.7506493   5.3121673  47.4733833  37.7956493
   5.2151673  46.7083833  37.6586493   4.9401673  36.9343833  49.3696493
   4.0761673  37.0183833  49.4496493   5.1601673  36.4203833  50.0386493
   4.8451673  36.8713833  49.4806493  16.9581673  35.5693833  50.6986493
  16.9061673  35.5253833  51.5686493  17.6451673  35.0663833  50.5086493
  17.0521673  35.4893833  50.7986493   9.0431673  37.6823833  47.7436493
   8.3061673  37.2283833  47.8566493   9.6141673  37.2803833  48.2666493
   9.0181673  37.5553833  47.8376493  11.7751673  48.5303833  49.5316493
  11.9811673  48.8313833  50.3236493  11.7141673  49.2523833  49.0466493
  11.7961673  48.6813833  49.5766493  11.3091673  52.7443833  53.7776493
  10.5561673  52.7263833  53.3366493  11.4771673  53.5963833  53.8616493
  11.2231673  52.8673833  53.7246493   6.5461673  42.0113833  52.9476493
   6.2241673  41.4353833  52.3776493   6.1871673  42.7663833  52.7016493
   6.4461673  42.0373833  52.8276493   7.3421673  35.2633833  37.5746493
   7.4201673  35.5103833  36.7416493   6.5991673  35.6403833  37.8326493
   7.2441673  35.3553833  37.4896493  16.5871673  47.1693833  48.9896493
  16.5551673  46.3073833  48.8546493  15.8941673  47.4713833  48.5556493
  16.4801673  47.0863833  48.9056493   4.9811673  52.3673833  53.1956493
   5.0221673  52.4933833  54.0586493   5.6321673  51.8073833  53.0396493
   5.0831673  52.3033833  53.3006493  14.6921673  50.4293833  47.7866493
  15.2191673  50.3463833  47.0956493  14.3011673  49.6513833  47.8406493
  14.7121673  50.3023833  47.6926493  11.2061673  35.8733833  46.9946493
  11.8761673  36.4173833  47.1216493  10.7031673  36.2973833  46.4216493
  11.2311673  36.0163833  46.9286493   2.5741673  50.7503833  54.5556493
   3.1691673  51.1813833  55.0276493   2.2101673  51.3743833  54.0666493
   2.6081673  50.9063833  54.5526493  10.5651673  41.6813833  44.4876493
  11.1161673  41.0743833  44.7876493  10.1401673  41.9443833  45.2026493
  10.5841673  41.6303833  44.6366493  12.5351673  43.5123833  41.0496493
  12.6031673  42.6623833  41.2306493  11.7121673  43.5983833  40.7716493
  12.4231673  43.3993833  41.0356493   2.2871673  52.0063833  40.2596493
   2.1421673  52.1623833  39.4136493   3.1531673  52.0853833  40.3376493
   2.3941673  52.0413833  40.1466493   6.4541673  44.4033833  39.9876493
   6.5541673  44.5423833  39.1326493   7.2721673  44.3433833  40.2836493
   6.5891673  44.4143833  39.9046493  15.6141673  52.4673833  37.4676493
  16.2511673  52.3333833  38.0486493  15.2731673  51.6733833  37.3506493
  15.6581673  52.3303833  37.5356493  15.8091673  44.8853833  54.2006493
  16.4431673  44.7153833  54.7746493  16.2261673  45.2883833  53.5486493
  15.9641673  44.9203833  54.1896493  11.6891673  48.7323833  39.7896493
  11.4381673  48.6043833  40.6156493  11.3721673  48.0373833  39.3686493
  11.6051673  48.6113833  39.8496493  16.4341673  39.4493833  54.9386493
  16.2381673  40.0933833  55.4936493  15.7121673  38.9593833  54.9306493
  16.2991673  39.4723833  55.0196493  16.3331673  40.3903833  47.9096493
  15.5001673  40.6403833  47.8376493  16.2771673  39.5503833  48.1386493
  16.2021673  40.3033833  47.9326493   5.5931673  37.3783833  53.1036493
   5.8271673  36.8023833  52.4906493   4.7511673  37.1973833  53.2446493
   5.5031673  37.2663833  53.0336493  13.2201673  44.9963833  55.5556493
  14.0911673  44.9603833  55.5196493  13.0011673  45.4163833  54.8236493
  13.3171673  45.0523833  55.4426493   2.9741673  50.8213833  46.7366493
   2.8951673  50.0113833  46.4206493   2.5301673  51.3083833  46.1646493
   2.8971673  50.7733833  46.6056493   8.5751673  46.9403833  39.2196493
   9.2921673  46.5933833  38.8636493   8.5411673  47.7403833  38.8716493
   8.6761673  47.0073833  39.1156493   9.9841673  35.5813833  23.4584083
   9.7391673  36.0693833  22.7784083  10.8471673  35.5083833  23.3584083
  10.0751673  35.6423833  23.3434083   9.7931673  42.4973833  28.1294083
   9.2691673  43.0933833  28.4924083  10.1901673  42.1293833  28.8134083
   9.7741673  42.5313833  28.2844083  15.9371673  49.9383833  21.1004083
  16.6381673  49.4193833  21.0964083  15.3501673  49.4933833  20.6314083
  15.9541673  49.7953833  21.0304083   2.5441673  45.6923833  18.7644083
   2.1521673  45.3213833  18.0784083   2.4641673  45.0943833  19.3934083
   2.4741673  45.5493833  18.7554083  12.4641673  43.5643833  24.8054083
  12.5441673  43.5683833  23.9364083  11.8801673  42.9323833  24.9544083
  12.3891673  43.4713833  24.6994083   6.4531673  36.6683833  22.6134083
   6.3831673  37.3453833  22.0674083   7.1941673  36.2803833  22.3644083
   6.5521673  36.7113833  22.4954083   6.1761673  46.8973833  34.9074083
   5.9401673  46.8943833  35.7474083   5.4281673  46.7493833  34.4834083
   6.0301673  46.8743833  34.9684083   5.5561673  39.5033833  29.3894083
   6.2341673  39.5213833  28.8404083   5.5111673  38.6673833  29.6344083
   5.6491673  39.3823833  29.3444083   6.1581673  50.0893833  32.1704083
   6.2961673  50.8493833  31.7634083   6.9491673  49.7243833  32.1974083
   6.2951673  50.1483833  32.1144083   3.0491673  41.9933833  24.0654083
   3.8661673  41.8063833  24.3084083   2.5721673  41.3793833  24.4614083
   3.0991673  41.8753833  24.1604083   7.2531673  47.9743833  26.6754083
   7.6011673  47.1753833  26.7054083   7.9181673  48.4783833  26.4204083
   7.4031673  47.9303833  26.6424083   7.3101673  47.4233833  22.8864083
   7.6411673  46.7793833  23.3724083   7.5501673  47.2123833  22.0754083
   7.3941673  47.2973833  22.8384083   9.2781673  41.5543833  34.2254083
   8.4301673  41.4553833  34.0474083   9.3071673  42.2993833  34.6794083
   9.1571673  41.6503833  34.2664083   3.6461673  37.0873833  23.3314083
   3.3501673  37.5883833  22.6814083   4.5131673  37.1653833  23.2744083
   3.7301673  37.1733833  23.2274083  13.8361673  34.5143833  33.3394083
  13.6781673  35.2833833  32.9574083  13.0641673  34.2943833  33.6834083
  13.6981673  34.5953833  33.3344083   6.6251673  36.2293833  25.5544083
   6.6981673  37.0893833  25.6834083   6.5871673  36.1543833  24.6864083
   6.6301673  36.3453833  25.4454083  11.2981673  39.1553833  17.8534083
  10.8481673  39.8363833  18.1604083  11.4121673  38.6513833  18.5564083
  11.2491673  39.1813833  18.0024083   5.2541673  49.2083833  22.4354083
   4.6751673  48.9333833  23.0274083   5.8781673  48.5993833  22.4604083
   5.2611673  49.0783833  22.5264083  11.3971673  51.4963833  19.9574083
  12.1241673  51.9683833  20.0594083  11.6261673  50.7023833  20.2374083
  11.5391673  51.4493833  20.0144083   9.5651673  51.8883833  21.9474083
   9.7791673  52.4153833  22.6094083  10.3321673  51.7143833  21.5684083
   9.7101673  51.9403833  21.9894083   2.5331673  36.4713833  27.5464083
   2.0121673  35.8433833  27.2384083   3.1241673  36.0343833  28.0174083
   2.5441673  36.3133833  27.5704083   5.8391673  38.6043833  36.8444083
   5.9561673  38.1503833  36.1084083   6.1271673  39.4023833  36.6414083
   5.8991673  38.6553833  36.7054083  16.6921673  39.1283833  24.1484083
  16.3461673  39.8063833  24.5744083  16.0561673  38.5303833  24.1644083
  16.5471673  39.1403833  24.2134083  12.0041673  51.8983833  30.2524083
  12.7481673  52.3543833  30.2424083  11.8831673  51.6843833  29.4154083
  12.0961673  51.9343833  30.1274083   1.7771673  48.5213833  26.3864083
   2.2001673  48.1653833  25.7124083   2.1011673  48.0993833  27.0784083
   1.8871673  48.4063833  26.3894083   5.0081673  51.3733833  25.6824083
   5.8521673  51.4773833  25.4874083   4.7111673  52.1913833  25.7504083
   5.0891673  51.5093833  25.6634083   8.2211673  35.8443833  34.9964083
   8.3991673  35.0353833  34.7214083   8.0781673  36.2853833  34.2574083
   8.2261673  35.7903833  34.8464083   8.8151673  40.7703833  23.7694083
   9.1021673  40.5383833  22.9794083   9.5471673  40.8493833  24.2384083
   8.9651673  40.7473833  23.7224083   9.5371673  41.1093833  18.8904083
   9.8181673  41.8973833  19.1394083   8.7611673  41.2743833  18.5274083
   9.4641673  41.2503833  18.8734083  13.5781673  53.0833833  20.3574083
  14.2431673  52.9353833  19.8124083  13.9381673  53.0003833  21.1474083
  13.7301673  53.0493833  20.3934083   4.0061673  52.5923833  31.4224083
   4.2981673  52.5253833  32.2424083   3.3801673  51.9873833  31.3774083
   3.9571673  52.4933833  31.5374083  16.3671673  37.4513833  29.5174083
  17.1241673  37.5233833  29.0894083  16.4301673  36.6783833  29.9164083
  16.4881673  37.3483833  29.5124083  11.2581673  49.0833833  33.9564083
  11.2241673  49.4653833  34.7404083  12.1121673  49.0413833  33.7854083
  11.3791673  49.1333833  34.0474083   8.3961673  49.2803833  18.7064083
   8.2151673  49.8253833  19.3634083   9.1621673  49.5703833  18.4054083
   8.4821673  49.4043833  18.7594083  11.9031673  37.1763833  19.7604083
  12.4431673  36.4943833  19.8364083  11.9651673  37.5743833  20.5344083
  11.9921673  37.1343833  19.8864083   9.1611673  39.5523833  21.0744083
   8.6531673  38.8903833  20.8204083   9.2131673  40.0563833  20.3644083
   9.0941673  39.5293833  20.9324083   9.7101673  52.2473833  31.4544083
  10.4781673  52.1673833  31.0484083   9.1271673  52.1263833  30.8164083
   9.7371673  52.2173833  31.3004083   9.1611673  36.4933833  20.9654083
   8.7061673  36.0913833  20.3394083   9.9341673  36.6483833  20.5904083
   9.2081673  36.4573833  20.8174083  15.9871673  52.8503833  24.3554083
  15.5321673  53.5673833  24.5564083  15.3731673  52.2793833  24.1134083
  15.8291673  52.8723833  24.3494083   7.7591673  38.8603833  25.4874083
   7.8331673  39.4283833  24.8294083   7.8801673  39.3523833  26.1974083
   7.7871673  39.0173833  25.4954083  12.9841673  48.6953833  23.8994083
  13.6851673  48.2133833  24.0884083  12.3241673  48.1263833  23.9444083
  12.9901673  48.5403833  23.9334083   3.3601673  49.6053833  33.1114083
   4.2011673  49.6683833  32.8894083   3.3231673  50.0023833  33.8874083
   3.4791673  49.6733833  33.1934083   2.3671673  34.6833833  23.8354083
   2.9031673  35.3713833  23.8254083   2.3701673  34.4093833  23.0074083
   2.4461673  34.7443833  23.7114083   5.3231673  45.1163833  27.8604083
   5.4951673  44.9063833  28.6894083   4.6681673  44.5823833  27.6444083
   5.2521673  45.0063833  27.9514083  11.5511673  39.0303833  31.3754083
  11.4561673  39.3493833  32.1814083  10.9581673  38.3913833  31.3374083
  11.4491673  38.9823833  31.4894083   6.0731673  45.0543833  30.4504083
   6.1261673  45.9013833  30.6524083   5.7881673  44.6843833  31.1874083
   6.0391673  45.1243833  30.5884083  12.2501673  45.7493833  29.5804083
  11.7361673  45.3373833  30.1514083  12.1241673  46.5933833  29.7614083
  12.1561673  45.8133833  29.6914083  12.8071673  34.9743833  24.2114083
  12.8561673  34.6563833  25.0224083  13.1301673  34.3303833  23.7184083
  12.8621673  34.8323833  24.2584083  15.2711673  39.2103833  32.5194083
  16.0431673  38.9853833  32.8564083  14.7961673  39.4273833  33.2194083
  15.3151673  39.2093833  32.6724083   2.8151673  38.4933833  25.4894083
   3.0871673  38.0633833  24.7814083   2.6391673  37.8573833  26.0604083
   2.8291673  38.3363833  25.4694083  15.5031673  46.1883833  19.7074083
  15.6221673  45.9013833  20.5224083  16.3101673  46.2093833  19.3774083
  15.6391673  46.1493833  19.7794083   2.6391673  45.9203833  25.0384083
   3.4901673  45.8403833  24.8654083   2.2821673  45.2383833  24.6264083
   2.7121673  45.8073833  24.9514083  17.7371673  50.6973833  33.9614083
  17.0551673  51.0073833  33.5144083  17.3681673  50.2393833  34.6064083
  17.5811673  50.6753833  33.9904083  13.3981673  42.7253833  19.2924083
  13.1781673  43.4563833  18.8704083  12.9501673  42.7763833  20.0394083
  13.2991673  42.8403833  19.3404083   5.0071673  45.9273833  23.2734083
   5.7201673  46.4223833  23.3634083   5.2291673  45.3603833  22.6474083
   5.1451673  45.9163833  23.1944083  17.5851673  37.5863833  18.7454083
  16.9231673  37.0183833  18.7684083  17.3921673  38.0983833  18.0654083
  17.4591673  37.5783833  18.6484083   6.8101673  41.2803833  36.6894083
   6.3261673  41.8573833  37.1314083   6.7821673  41.5753833  35.8684083
   6.7341673  41.4093833  36.6334083  17.9081673  41.9643833  31.3014083
  18.1231673  41.1643833  31.0254083  17.0581673  42.0243833  31.1124083
  17.8141673  41.8553833  31.2324083  15.5871673  37.1443833  21.0244083
  16.3331673  36.7373833  21.2234083  15.8501673  37.8593833  20.5994083
  15.7361673  37.1903833  20.9914083   9.5301673  49.6303833  25.6004083
   9.0071673  50.2643833  25.3074083   9.8401673  49.2663833  24.8714083
   9.4981673  49.6703833  25.4494083   3.6051673  47.4183833  28.3604083
   4.0721673  47.7073833  29.0384083   4.1771673  46.9403833  27.9064083
   3.7591673  47.3903833  28.3934083  12.0411673  39.4323833  26.0974083
  12.3851673  39.5843833  26.8844083  11.5881673  38.6943833  26.2104083
  12.0251673  39.3453833  26.2304083   6.5171673  38.6523833  20.5544083
   6.5151673  38.5353833  19.6894083   6.3361673  39.5003833  20.6464083
   6.4901673  38.7603833  20.4404083  15.5711673  51.0793833  32.0514083
  14.9001673  51.5933833  32.2694083  15.6341673  51.1793833  31.1874083
  15.4811673  51.1703833  31.9564083   4.2551673  48.6043833  25.1864083
   4.3811673  49.4473833  25.3734083   4.9231673  48.2053833  25.5824083
   4.3731673  48.6703833  25.2724083   2.3851673  42.0873833  35.0484083
   1.8491673  41.5813833  35.5164083   2.4051673  41.6973833  34.2684083
   2.3081673  41.9543833  35.0024083   2.8701673  41.4843833  20.1884083
   2.7421673  41.0363833  20.9264083   2.2881673  41.1423833  19.6364083
   2.7651673  41.3673833  20.2164083   3.0371673  43.3143833  26.7874083
   2.2561673  43.2553833  26.4044083   3.1091673  42.5623833  27.2244083
   2.9321673  43.1953833  26.7954083   3.4671673  43.0513833  30.2554083
   3.4921673  42.3763833  29.7044083   2.8211673  43.5473833  29.9434083
   3.3761673  43.0243833  30.1284083  13.3621673  40.7643833  28.6514083
  12.7001673  41.0923833  29.1144083  13.5491673  41.3983833  28.0824083
  13.2921673  40.9063833  28.6354083   7.5671673  51.8283833  29.6474083
   7.2901673  51.1873833  29.1244083   7.3591673  52.5543833  29.2094083
   7.4961673  51.8413833  29.5054083  10.0071673  36.6703833  32.0804083
  10.1561673  35.8453833  31.8374083  10.3861673  36.7253833  32.8644083
  10.0851673  36.5563833  32.1604083  11.5551673  38.7333833  22.1624083
  12.0451673  39.4503833  22.0854083  10.7651673  38.9943833  21.8994083
  11.5111673  38.8773833  22.1124083  12.8691673  46.6113833  34.0724083
  13.3531673  47.3293833  34.1704083  13.2631673  46.1843833  33.4214083
  12.9991673  46.6543833  33.9904083   7.1651673  49.4563833  35.2494083
   7.5191673  49.2783833  36.0264083   6.7291673  48.7273833  35.0504083
   7.1531673  49.3223833  35.3354083   8.1371673  40.2033833  27.8874083
   8.6171673  40.9023833  28.0954083   8.5101673  39.5563833  28.3384083
   8.2631673  40.2113833  27.9844083  10.3261673  43.3723833  20.1614083
  10.3181673  44.0943833  19.6714083   9.6871673  43.5073833  20.7384083
  10.2311673  43.4993833  20.1744083  15.2981673  47.2423833  24.1424083
  15.6541673  46.8923833  24.8574083  15.2901673  46.5813833  23.5724083
  15.3501673  47.0923833  24.1634083  11.3431673  50.3083833  27.9864083
  10.7401673  50.0123833  27.4294083  11.8881673  50.7603833  27.4774083
  11.3341673  50.3313833  27.8284083  11.3561673  47.1593833  27.3864083
  10.5591673  47.3833833  27.6604083  11.6141673  46.5653833  27.9714083
  11.2761673  47.1043833  27.5134083   5.2481673  51.9713833  21.8344083
   5.1011673  51.1953833  22.2054083   5.9371673  51.8243833  21.3194083
   5.3281673  51.8343833  21.8134083   4.9191673  35.7143833  19.8224083
   5.0161673  35.6073833  20.6834083   4.2111673  36.2203833  19.7574083
   4.8291673  35.7733833  19.9404083   7.5401673  51.4873833  20.2364083
   8.1621673  51.6503833  20.8264083   7.5761673  52.1783833  19.7044083
   7.6371673  51.6133833  20.2454083  14.6161673  45.1573833  32.2324083
  14.6711673  45.2823833  31.3704083  15.3691673  45.4773833  32.5344083
  14.7351673  45.2223833  32.1494083  10.8071673  50.5063833  36.5094083
  10.9711673  50.7893833  37.3184083  11.0701673  51.1673833  36.0044083
  10.8701673  50.6463833  36.5544083  15.6481673  35.4553833  35.2194083
  15.0111673  35.0553833  34.7774083  15.6741673  35.0243833  35.9774083
  15.5581673  35.3333833  35.2654083   2.0411673  44.0213833  21.0654083
   2.3651673  43.2423833  20.8434083   2.6871673  44.3893833  21.5204083
   2.1841673  43.9603833  21.0994083  10.3471673  44.9633833  31.8324083
  10.1921673  45.5733833  32.4364083  10.8811673  44.4053833  32.2384083
  10.4031673  44.9713833  31.9814083   8.7311673  43.3633833  22.4904083
   8.7901673  44.0133833  23.0694083   8.5421673  42.6673833  22.9814083
   8.7121673  43.3563833  22.6484083  13.9571673  47.6923833  28.3594083
  13.4781673  47.9903833  27.6934083  13.6011673  46.9163833  28.5374083
  13.8341673  47.6213833  28.2874083   3.2271673  37.8803833  19.0024083
   2.7161673  37.9333833  18.2964083   4.0111673  38.1203833  18.7064083
   3.2671673  37.9233833  18.8544083   7.9541673  45.4103833  26.9214083
   7.1071673  45.2163833  27.0024083   8.2781673  45.2453833  27.7144083
   7.8761673  45.3573833  27.0504083   4.7061673  52.1403833  17.8074083
   5.1451673  51.4433833  18.0954083   4.9131673  52.7643833  18.3804083
   4.8021673  52.1293833  17.9344083   5.0321673  40.2743833  25.9724083
   5.8781673  40.0843833  26.0704083   4.6621673  39.4973833  25.8344083
   5.1021673  40.1313833  25.9664083  17.6491673  51.8583833  20.2994083
  18.3431673  51.3913833  20.0514083  17.1101673  51.2603833  20.6364083
  17.6721673  51.7003833  20.3124083  14.8881673  44.6343833  29.4784083
  14.8811673  43.8583833  29.8764083  14.0471673  44.8683833  29.4714083
  14.7631673  44.5543833  29.5364083   4.3781673  43.0463833  18.1134083
   3.7681673  42.6413833  18.5874083   3.9921673  43.1643833  17.3404083
   4.2311673  43.0033833  18.0694083  16.1441673  44.7053833  26.9154083
  15.8581673  45.1063833  27.6354083  17.0041673  44.6433833  27.0424083
  16.2291673  44.7553833  27.0404083   5.8331673  41.5073833  20.8234083
   6.1051673  42.3333833  20.8904083   4.9701673  41.5823833  20.7274083
   5.7461673  41.6403833  20.8184083  13.8061673  38.6293833  35.4554083
  13.2811673  39.0883833  35.9794083  13.4451673  37.8343833  35.4494083
  13.6751673  38.5793833  35.5314083  17.2751673  50.3383833  27.4444083
  17.5651673  50.5953833  26.6634083  17.9701673  50.4343833  27.9634083
  17.4211673  50.3903833  27.4054083  12.2981673  42.1983833  35.5314083
  12.3711673  42.3023833  36.3944083  11.6641673  42.7563833  35.3104083
  12.2151673  42.2963833  35.6264083  14.5661673  42.5173833  33.8964083
  14.8851673  43.3033833  34.0994083  14.1961673  42.2473833  34.6394083
  14.5591673  42.5933833  34.0364083  13.8801673  48.9413833  19.4264083
  14.2141673  48.1353833  19.4614083  13.1251673  48.8693833  19.8564083
  13.8181673  48.8113833  19.4954083  14.3621673  40.7753833  25.0854083
  13.6171673  40.4523833  25.4034083  14.3641673  41.6013833  25.3654083
  14.2521673  40.8493833  25.1734083  17.2641673  43.0593833  36.6314083
  17.2121673  42.7183833  35.8304083  18.0011673  43.5263833  36.6094083
  17.3651673  43.0783833  36.5094083  16.8021673  46.7353833  32.8374083
  17.4301673  46.1863833  32.5814083  16.7411673  47.3003833  32.1754083
  16.8861673  46.7383833  32.7014083  11.2541673  46.8163833  18.8294083
  11.9381673  46.3023833  18.6604083  10.8371673  46.8623833  18.0644083
  11.2931673  46.7473833  18.6914083   5.9361673  47.9663833  30.1334083
   5.6381673  48.5583833  30.7004083   5.9911673  48.4083833  29.3844083
   5.9001673  48.1193833  30.1064083   3.9151673  46.9163833  33.5314083
   3.1091673  46.6263833  33.6984083   3.8261673  47.7843833  33.5374083
   3.7831673  47.0013833  33.5564083  13.2741673  37.1053833  32.5464083
  14.0181673  37.5573833  32.4834083  12.7081673  37.5753833  32.0774083
  13.3011673  37.2423833  32.4684083   8.4521673  44.3893833  29.6244083
   8.9281673  44.7633833  30.2524083   7.6291673  44.5233833  29.8834083
   8.4011673  44.4643833  29.7554083   5.1621673  39.9923833  32.3654083
   5.3231673  39.2483833  32.7924083   5.1171673  39.7433833  31.5304083
   5.1791673  39.8453833  32.3054083   7.7161673  51.7823833  24.8524083
   8.2621673  52.4613833  24.9064083   7.3661673  51.8643833  24.0574083
   7.7451673  51.8953833  24.7424083  14.5591673  35.0853833  30.2164083
  14.2791673  35.9103833  30.1724083  15.2751673  35.1383833  30.7124083
  14.6241673  35.2153833  30.2834083   6.9141673  35.8003833  32.2454083
   7.6191673  36.1203833  31.8434083   7.1551673  34.9933833  32.4724083
   7.0531673  35.7283833  32.2194083   5.8991673  50.0103833  28.2414083
   5.2751673  50.5923833  28.0594083   6.1471673  49.7243833  27.4554083
   5.8431673  50.0543833  28.0984083  10.2081673  46.6443833  35.2304083
  10.9651673  46.9303833  34.9044083   9.6611673  46.6963833  34.5524083
  10.2391673  46.6943833  35.0814083  14.1171673  49.1943833  33.7344083
  14.4631673  49.4643833  34.4884083  14.4111673  49.7763833  33.1544083
  14.2121673  49.3203833  33.7604083  15.9801673  41.3403833  19.0734083
  16.3581673  42.0173833  18.6734083  15.1381673  41.5643833  19.1044083
  15.9111673  41.4733833  19.0184083   7.4931673  44.7863833  18.1564083
   6.6881673  44.6093833  17.8714083   7.4601673  45.6373833  18.3484083
   7.3691673  44.8853833  18.1434083   3.4231673  40.8533833  28.3064083
   3.8631673  40.7503833  27.5604083   3.9681673  40.5403833  28.9114083
   3.5681673  40.7923833  28.2854083  11.4391673  39.9553833  33.8984083
  10.7911673  40.4253833  34.2464083  12.0041673  39.8663833  34.5574083
  11.4271673  40.0113833  34.0474083  11.1271673  41.4923833  30.1964083
  11.4291673  41.9123833  30.8994083  11.1631673  40.6523833  30.4284083
  11.1771673  41.4303833  30.3344083   8.5521673  51.6593833  34.1214083
   9.0301673  51.0593833  33.7054083   8.2011673  51.2163833  34.7864083
   8.5711673  51.5053833  34.1584083  13.6751673  40.9393833  22.4484083
  13.8821673  40.7383833  23.2724083  14.4311673  41.2073833  22.1064083
  13.8171673  40.9493833  22.5194083   6.9701673  35.8383833  28.3534083
   6.1441673  35.6893833  28.5904083   6.9301673  35.8733833  27.4824083
   6.8421673  35.8213833  28.2594083  14.6971673  37.0223833  23.9224083
  13.9831673  36.5513833  24.0934083  14.5351673  37.3633833  23.1364083
  14.5681673  37.0033833  23.8314083  15.1401673  44.9663833  22.3024083
  15.6161673  44.2373833  22.2544083  14.3191673  44.6803833  22.2264083
  15.0891673  44.8163833  22.2834083   8.6111673  46.8783833  33.1414083
   7.8161673  46.8143833  33.4924083   8.6821673  47.7253833  32.9464083
   8.5041673  46.9933833  33.1644083   4.4411673  53.0853833  28.4584083
   4.4521673  53.1443833  29.3284083   4.0161673  52.3383833  28.3084083
   4.3801673  52.9833833  28.5644083   2.5991673  38.9803833  21.6134083
   2.7251673  38.6513833  20.8154083   1.7871673  38.7313833  21.8124083
   2.4981673  38.8953833  21.5254083  11.3561673  46.1333833  24.6574083
  11.4321673  46.4743833  25.4564083  11.5251673  45.2863833  24.7784083
  11.3921673  46.0583833  24.7934083   8.8781673  45.4073833  24.2224083
   8.5801673  45.0923833  24.9794083   9.5731673  45.8803833  24.4574083
   8.9371673  45.4303833  24.3694083   9.1001673  49.5253833  32.2494083
   9.7871673  49.4113833  32.7744083   9.2341673  50.3163833  31.9054083
   9.2211673  49.6253833  32.2764083  17.2761673  42.1343833  34.0604083
  16.4211673  42.0123833  34.1864083  17.4291673  41.7393833  33.2974083
  17.1721673  42.0573833  33.9664083  11.7891673  42.7993833  32.6364083
  11.5341673  42.0803833  33.0584083  12.6101673  42.9153833  32.9064083
  11.8731673  42.7103833  32.7384083   9.7231673  43.9893833  35.8234083
  10.0461673  44.6753833  35.3914083   9.0191673  44.3123833  36.2254083
   9.6661673  44.1383833  35.8184083  12.8071673  52.3633833  26.7524083
  12.3561673  53.0063833  27.1314083  13.5151673  52.2843833  27.2574083
  12.8451673  52.4463833  26.8834083   9.5081673  47.4533833  29.6824083
   8.8141673  47.8553833  30.0254083  10.1851673  47.8863833  30.0214083
   9.5051673  47.5763833  29.7834083  14.8851673  50.0463833  36.2624083
  15.6611673  49.6563833  36.3454083  14.4161673  49.7103833  36.9174083
  14.9301673  49.9393833  36.3714083   2.5761673  40.9913833  32.0294083
   2.9511673  41.6103833  31.5424083   3.2501673  40.5173833  32.3144083
   2.7311673  41.0133833  31.9994083  15.9101673  42.0793833  21.7444083
  16.0131673  42.0213833  20.8804083  16.6511673  41.7473833  22.0624083
  16.0351673  42.0223833  21.6634083   2.9051673  36.8493833  33.7154083
   2.8241673  36.0053833  33.9214083   2.5911673  36.8933833  32.9024083
   2.8471673  36.7313833  33.6254083   9.8301673  49.0443833  22.8514083
   9.6251673  49.8773833  22.6924083   9.0551673  48.6623833  22.9734083
   9.6851673  49.1113833  22.8464083  15.0121673  42.2253833  31.1004083
  15.0101673  41.3623833  31.2244083  15.0791673  42.5493833  31.9074083
  15.0221673  42.1453833  31.2374083  10.8911673  37.0253833  34.8824083
  10.9831673  37.7373833  35.3764083  10.2541673  36.5803833  35.2794083
  10.8101673  37.0643833  35.0144083   9.8851673  37.2153833  25.7364083
   9.1851673  37.7333833  25.6804083   9.9231673  36.8353833  24.9524083
   9.7871673  37.2363833  25.6124083   5.1921673  49.3063833  19.2604083
   5.6331673  49.3863833  20.0084083   4.3871673  49.0903833  19.5184083
   5.1381673  49.2863833  19.4094083  13.4831673  37.7313833  28.5364083
  14.3381673  37.8303833  28.6814083  13.1141673  38.2843833  29.1014083
  13.5551673  37.8283833  28.6414083   4.5111673  43.9573833  32.9134083
   4.1151673  44.7313833  32.9884083   4.1051673  43.5843833  32.2374083
   4.3931673  44.0163833  32.8244083  13.7871673  43.0113833  27.0274083
  14.4531673  43.5523833  27.1874083  13.4421673  43.3223833  26.2884083
  13.8341673  43.1373833  26.9424083  14.1001673  51.0773833  22.8344083
  13.9261673  50.4233833  23.3844083  14.8131673  50.8063833  22.4114083
  14.1801673  50.9403833  22.8534083   2.5211673  48.3763833  19.8614083
   2.2771673  48.0693833  20.6414083   2.4881673  47.6733833  19.3454083
   2.4801673  48.2273833  19.9004083   5.3401673  46.6213833  18.6044083
   4.5221673  46.3533833  18.7444083   5.3121673  47.4733833  18.7894083
   5.2151673  46.7083833  18.6524083   4.9401673  36.9343833  30.3634083
   4.0761673  37.0183833  30.4434083   5.1601673  36.4203833  31.0324083
   4.8451673  36.8713833  30.4744083  16.9581673  35.5693833  31.6924083
  16.9061673  35.5253833  32.5624083  17.6451673  35.0663833  31.5024083
  17.0521673  35.4893833  31.7924083   9.0431673  37.6823833  28.7374083
   8.3061673  37.2283833  28.8504083   9.6141673  37.2803833  29.2604083
   9.0181673  37.5553833  28.8314083  11.7751673  48.5303833  30.5254083
  11.9811673  48.8313833  31.3174083  11.7141673  49.2523833  30.0404083
  11.7961673  48.6813833  30.5704083  11.3091673  52.7443833  34.7714083
  10.5561673  52.7263833  34.3304083  11.4771673  53.5963833  34.8554083
  11.2231673  52.8673833  34.7184083   6.5461673  42.0113833  33.9414083
   6.2241673  41.4353833  33.3714083   6.1871673  42.7663833  33.6954083
   6.4461673  42.0373833  33.8214083   7.3421673  35.2633833  18.5684083
   7.4201673  35.5103833  17.7354083   6.5991673  35.6403833  18.8264083
   7.2441673  35.3553833  18.4834083  16.5871673  47.1693833  29.9834083
  16.5551673  46.3073833  29.8484083  15.8941673  47.4713833  29.5494083
  16.4801673  47.0863833  29.8994083   4.9811673  52.3673833  34.1894083
   5.0221673  52.4933833  35.0524083   5.6321673  51.8073833  34.0334083
   5.0831673  52.3033833  34.2944083  14.6921673  50.4293833  28.7804083
  15.2191673  50.3463833  28.0894083  14.3011673  49.6513833  28.8344083
  14.7121673  50.3023833  28.6864083  11.2061673  35.8733833  27.9884083
  11.8761673  36.4173833  28.1154083  10.7031673  36.2973833  27.4154083
  11.2311673  36.0163833  27.9224083   2.5741673  50.7503833  35.5494083
   3.1691673  51.1813833  36.0214083   2.2101673  51.3743833  35.0604083
   2.6081673  50.9063833  35.5464083  10.5651673  41.6813833  25.4814083
  11.1161673  41.0743833  25.7814083  10.1401673  41.9443833  26.1964083
  10.5841673  41.6303833  25.6304083  12.5351673  43.5123833  22.0434083
  12.6031673  42.6623833  22.2244083  11.7121673  43.5983833  21.7654083
  12.4231673  43.3993833  22.0294083   2.2871673  52.0063833  21.2534083
   2.1421673  52.1623833  20.4074083   3.1531673  52.0853833  21.3314083
   2.3941673  52.0413833  21.1404083   6.4541673  44.4033833  20.9814083
   6.5541673  44.5423833  20.1264083   7.2721673  44.3433833  21.2774083
   6.5891673  44.4143833  20.8984083  15.6141673  52.4673833  18.4614083
  16.2511673  52.3333833  19.0424083  15.2731673  51.6733833  18.3444083
  15.6581673  52.3303833  18.5294083  15.8091673  44.8853833  35.1944083
  16.4431673  44.7153833  35.7684083  16.2261673  45.2883833  34.5424083
  15.9641673  44.9203833  35.1834083  11.6891673  48.7323833  20.7834083
  11.4381673  48.6043833  21.6094083  11.3721673  48.0373833  20.3624083
  11.6051673  48.6113833  20.8434083  16.4341673  39.4493833  35.9324083
  16.2381673  40.0933833  36.4874083  15.7121673  38.9593833  35.9244083
  16.2991673  39.4723833  36.0134083  16.3331673  40.3903833  28.9034083
  15.5001673  40.6403833  28.8314083  16.2771673  39.5503833  29.1324083
  16.2021673  40.3033833  28.9264083   5.5931673  37.3783833  34.0974083
   5.8271673  36.8023833  33.4844083   4.7511673  37.1973833  34.2384083
   5.5031673  37.2663833  34.0274083  13.2201673  44.9963833  36.5494083
  14.0911673  44.9603833  36.5134083  13.0011673  45.4163833  35.8174083
  13.3171673  45.0523833  36.4364083   2.9741673  50.8213833  27.7304083
   2.8951673  50.0113833  27.4144083   2.5301673  51.3083833  27.1584083
   2.8971673  50.7733833  27.5994083   8.5751673  46.9403833  20.2134083
   9.2921673  46.5933833  19.8574083   8.5411673  47.7403833  19.8654083
   8.6761673  47.0073833  20.1094083   9.9841673  35.5813833   4.4521673
   9.7391673  36.0693833   3.7721673  10.8471673  35.5083833   4.3521673
  10.0751673  35.6423833   4.3371673   9.7931673  42.4973833   9.1231673
   9.2691673  43.0933833   9.4861673  10.1901673  42.1293833   9.8071673
   9.7741673  42.5313833   9.2781673  15.9371673  49.9383833   2.0941673
  16.6381673  49.4193833   2.0901673  15.3501673  49.4933833   1.6251673
  15.9541673  49.7953833   2.0241673  12.4641673  43.5643833   5.7991673
  12.5441673  43.5683833   4.9301673  11.8801673  42.9323833   5.9481673
  12.3891673  43.4713833   5.6931673   6.4531673  36.6683833   3.6071673
   6.3831673  37.3453833   3.0611673   7.1941673  36.2803833   3.3581673
   6.5521673  36.7113833   3.4891673   6.1761673  46.8973833  15.9011673
   5.9401673  46.8943833  16.7411673   5.4281673  46.7493833  15.4771673
   6.0301673  46.8743833  15.9621673   5.5561673  39.5033833  10.3831673
   6.2341673  39.5213833   9.8341673   5.5111673  38.6673833  10.6281673
   5.6491673  39.3823833  10.3381673   6.1581673  50.0893833  13.1641673
   6.2961673  50.8493833  12.7571673   6.9491673  49.7243833  13.1911673
   6.2951673  50.1483833  13.1081673   3.0491673  41.9933833   5.0591673
   3.8661673  41.8063833   5.3021673   2.5721673  41.3793833   5.4551673
   3.0991673  41.8753833   5.1541673   7.2531673  47.9743833   7.6691673
   7.6011673  47.1753833   7.6991673   7.9181673  48.4783833   7.4141673
   7.4031673  47.9303833   7.6361673   7.3101673  47.4233833   3.8801673
   7.6411673  46.7793833   4.3661673   7.5501673  47.2123833   3.0691673
   7.3941673  47.2973833   3.8321673   9.2781673  41.5543833  15.2191673
   8.4301673  41.4553833  15.0411673   9.3071673  42.2993833  15.6731673
   9.1571673  41.6503833  15.2601673   3.6461673  37.0873833   4.3251673
   3.3501673  37.5883833   3.6751673   4.5131673  37.1653833   4.2681673
   3.7301673  37.1733833   4.2211673  13.8361673  34.5143833  14.3331673
  13.6781673  35.2833833  13.9511673  13.0641673  34.2943833  14.6771673
  13.6981673  34.5953833  14.3281673   6.6251673  36.2293833   6.5481673
   6.6981673  37.0893833   6.6771673   6.5871673  36.1543833   5.6801673
   6.6301673  36.3453833   6.4391673   5.2541673  49.2083833   3.4291673
   4.6751673  48.9333833   4.0211673   5.8781673  48.5993833   3.4541673
   5.2611673  49.0783833   3.5201673   9.5651673  51.8883833   2.9411673
   9.7791673  52.4153833   3.6031673  10.3321673  51.7143833   2.5621673
   9.7101673  51.9403833   2.9831673   2.5331673  36.4713833   8.5401673
   2.0121673  35.8433833   8.2321673   3.1241673  36.0343833   9.0111673
   2.5441673  36.3133833   8.5641673   5.8391673  38.6043833  17.8381673
   5.9561673  38.1503833  17.1021673   6.1271673  39.4023833  17.6351673
   5.8991673  38.6553833  17.6991673  16.6921673  39.1283833   5.1421673
  16.3461673  39.8063833   5.5681673  16.0561673  38.5303833   5.1581673
  16.5471673  39.1403833   5.2071673  12.0041673  51.8983833  11.2461673
  12.7481673  52.3543833  11.2361673  11.8831673  51.6843833  10.4091673
  12.0961673  51.9343833  11.1211673   1.7771673  48.5213833   7.3801673
   2.2001673  48.1653833   6.7061673   2.1011673  48.0993833   8.0721673
   1.8871673  48.4063833   7.3831673   5.0081673  51.3733833   6.6761673
   5.8521673  51.4773833   6.4811673   4.7111673  52.1913833   6.7441673
   5.0891673  51.5093833   6.6571673   8.2211673  35.8443833  15.9901673
   8.3991673  35.0353833  15.7151673   8.0781673  36.2853833  15.2511673
   8.2261673  35.7903833  15.8401673   8.8151673  40.7703833   4.7631673
   9.1021673  40.5383833   3.9731673   9.5471673  40.8493833   5.2321673
   8.9651673  40.7473833   4.7161673   4.0061673  52.5923833  12.4161673
   4.2981673  52.5253833  13.2361673   3.3801673  51.9873833  12.3711673
   3.9571673  52.4933833  12.5311673  16.3671673  37.4513833  10.5111673
  17.1241673  37.5233833  10.0831673  16.4301673  36.6783833  10.9101673
  16.4881673  37.3483833  10.5061673  11.2581673  49.0833833  14.9501673
  11.2241673  49.4653833  15.7341673  12.1121673  49.0413833  14.7791673
  11.3791673  49.1333833  15.0411673   9.1611673  39.5523833   2.0681673
   8.6531673  38.8903833   1.8141673   9.2131673  40.0563833   1.3581673
   9.0941673  39.5293833   1.9261673   9.7101673  52.2473833  12.4481673
  10.4781673  52.1673833  12.0421673   9.1271673  52.1263833  11.8101673
   9.7371673  52.2173833  12.2941673   9.1611673  36.4933833   1.9591673
   8.7061673  36.0913833   1.3331673   9.9341673  36.6483833   1.5841673
   9.2081673  36.4573833   1.8111673  15.9871673  52.8503833   5.3491673
  15.5321673  53.5673833   5.5501673  15.3731673  52.2793833   5.1071673
  15.8291673  52.8723833   5.3431673   7.7591673  38.8603833   6.4811673
   7.8331673  39.4283833   5.8231673   7.8801673  39.3523833   7.1911673
   7.7871673  39.0173833   6.4891673  12.9841673  48.6953833   4.8931673
  13.6851673  48.2133833   5.0821673  12.3241673  48.1263833   4.9381673
  12.9901673  48.5403833   4.9271673   3.3601673  49.6053833  14.1051673
   4.2011673  49.6683833  13.8831673   3.3231673  50.0023833  14.8811673
   3.4791673  49.6733833  14.1871673   2.3671673  34.6833833   4.8291673
   2.9031673  35.3713833   4.8191673   2.3701673  34.4093833   4.0011673
   2.4461673  34.7443833   4.7051673   5.3231673  45.1163833   8.8541673
   5.4951673  44.9063833   9.6831673   4.6681673  44.5823833   8.6381673
   5.2521673  45.0063833   8.9451673  11.5511673  39.0303833  12.3691673
  11.4561673  39.3493833  13.1751673  10.9581673  38.3913833  12.3311673
  11.4491673  38.9823833  12.4831673   6.0731673  45.0543833  11.4441673
   6.1261673  45.9013833  11.6461673   5.7881673  44.6843833  12.1811673
   6.0391673  45.1243833  11.5821673  12.2501673  45.7493833  10.5741673
  11.7361673  45.3373833  11.1451673  12.1241673  46.5933833  10.7551673
  12.1561673  45.8133833  10.6851673  12.8071673  34.9743833   5.2051673
  12.8561673  34.6563833   6.0161673  13.1301673  34.3303833   4.7121673
  12.8621673  34.8323833   5.2521673  15.2711673  39.2103833  13.5131673
  16.0431673  38.9853833  13.8501673  14.7961673  39.4273833  14.2131673
  15.3151673  39.2093833  13.6661673   2.8151673  38.4933833   6.4831673
   3.0871673  38.0633833   5.7751673   2.6391673  37.8573833   7.0541673
   2.8291673  38.3363833   6.4631673   2.6391673  45.9203833   6.0321673
   3.4901673  45.8403833   5.8591673   2.2821673  45.2383833   5.6201673
   2.7121673  45.8073833   5.9451673  17.7371673  50.6973833  14.9551673
  17.0551673  51.0073833  14.5081673  17.3681673  50.2393833  15.6001673
  17.5811673  50.6753833  14.9841673   5.0071673  45.9273833   4.2671673
   5.7201673  46.4223833   4.3571673   5.2291673  45.3603833   3.6411673
   5.1451673  45.9163833   4.1881673   6.8101673  41.2803833  17.6831673
   6.3261673  41.8573833  18.1251673   6.7821673  41.5753833  16.8621673
   6.7341673  41.4093833  17.6271673  17.9081673  41.9643833  12.2951673
  18.1231673  41.1643833  12.0191673  17.0581673  42.0243833  12.1061673
  17.8141673  41.8553833  12.2261673  15.5871673  37.1443833   2.0181673
  16.3331673  36.7373833   2.2171673  15.8501673  37.8593833   1.5931673
  15.7361673  37.1903833   1.9851673   9.5301673  49.6303833   6.5941673
   9.0071673  50.2643833   6.3011673   9.8401673  49.2663833   5.8651673
   9.4981673  49.6703833   6.4431673   3.6051673  47.4183833   9.3541673
   4.0721673  47.7073833  10.0321673   4.1771673  46.9403833   8.9001673
   3.7591673  47.3903833   9.3871673  12.0411673  39.4323833   7.0911673
  12.3851673  39.5843833   7.8781673  11.5881673  38.6943833   7.2041673
  12.0251673  39.3453833   7.2241673  15.5711673  51.0793833  13.0451673
  14.9001673  51.5933833  13.2631673  15.6341673  51.1793833  12.1811673
  15.4811673  51.1703833  12.9501673   4.2551673  48.6043833   6.1801673
   4.3811673  49.4473833   6.3671673   4.9231673  48.2053833   6.5761673
   4.3731673  48.6703833   6.2661673   2.3851673  42.0873833  16.0421673
   1.8491673  41.5813833  16.5101673   2.4051673  41.6973833  15.2621673
   2.3081673  41.9543833  15.9961673   3.0371673  43.3143833   7.7811673
   2.2561673  43.2553833   7.3981673   3.1091673  42.5623833   8.2181673
   2.9321673  43.1953833   7.7891673   3.4671673  43.0513833  11.2491673
   3.4921673  42.3763833  10.6981673   2.8211673  43.5473833  10.9371673
   3.3761673  43.0243833  11.1221673  13.3621673  40.7643833   9.6451673
  12.7001673  41.0923833  10.1081673  13.5491673  41.3983833   9.0761673
  13.2921673  40.9063833   9.6291673   7.5671673  51.8283833  10.6411673
   7.2901673  51.1873833  10.1181673   7.3591673  52.5543833  10.2031673
   7.4961673  51.8413833  10.4991673  10.0071673  36.6703833  13.0741673
  10.1561673  35.8453833  12.8311673  10.3861673  36.7253833  13.8581673
  10.0851673  36.5563833  13.1541673  11.5551673  38.7333833   3.1561673
  12.0451673  39.4503833   3.0791673  10.7651673  38.9943833   2.8931673
  11.5111673  38.8773833   3.1061673  12.8691673  46.6113833  15.0661673
  13.3531673  47.3293833  15.1641673  13.2631673  46.1843833  14.4151673
  12.9991673  46.6543833  14.9841673   7.1651673  49.4563833  16.2431673
   7.5191673  49.2783833  17.0201673   6.7291673  48.7273833  16.0441673
   7.1531673  49.3223833  16.3291673   8.1371673  40.2033833   8.8811673
   8.6171673  40.9023833   9.0891673   8.5101673  39.5563833   9.3321673
   8.2631673  40.2113833   8.9781673  15.2981673  47.2423833   5.1361673
  15.6541673  46.8923833   5.8511673  15.2901673  46.5813833   4.5661673
  15.3501673  47.0923833   5.1571673  11.3431673  50.3083833   8.9801673
  10.7401673  50.0123833   8.4231673  11.8881673  50.7603833   8.4711673
  11.3341673  50.3313833   8.8221673  11.3561673  47.1593833   8.3801673
  10.5591673  47.3833833   8.6541673  11.6141673  46.5653833   8.9651673
  11.2761673  47.1043833   8.5071673   5.2481673  51.9713833   2.8281673
   5.1011673  51.1953833   3.1991673   5.9371673  51.8243833   2.3131673
   5.3281673  51.8343833   2.8071673  14.6161673  45.1573833  13.2261673
  14.6711673  45.2823833  12.3641673  15.3691673  45.4773833  13.5281673
  14.7351673  45.2223833  13.1431673  10.8071673  50.5063833  17.5031673
  10.9711673  50.7893833  18.3121673  11.0701673  51.1673833  16.9981673
  10.8701673  50.6463833  17.5481673  15.6481673  35.4553833  16.2131673
  15.0111673  35.0553833  15.7711673  15.6741673  35.0243833  16.9711673
  15.5581673  35.3333833  16.2591673   2.0411673  44.0213833   2.0591673
   2.3651673  43.2423833   1.8371673   2.6871673  44.3893833   2.5141673
   2.1841673  43.9603833   2.0931673  10.3471673  44.9633833  12.8261673
  10.1921673  45.5733833  13.4301673  10.8811673  44.4053833  13.2321673
  10.4031673  44.9713833  12.9751673   8.7311673  43.3633833   3.4841673
   8.7901673  44.0133833   4.0631673   8.5421673  42.6673833   3.9751673
   8.7121673  43.3563833   3.6421673  13.9571673  47.6923833   9.3531673
  13.4781673  47.9903833   8.6871673  13.6011673  46.9163833   9.5311673
  13.8341673  47.6213833   9.2811673   7.9541673  45.4103833   7.9151673
   7.1071673  45.2163833   7.9961673   8.2781673  45.2453833   8.7081673
   7.8761673  45.3573833   8.0441673   5.0321673  40.2743833   6.9661673
   5.8781673  40.0843833   7.0641673   4.6621673  39.4973833   6.8281673
   5.1021673  40.1313833   6.9601673  14.8881673  44.6343833  10.4721673
  14.8811673  43.8583833  10.8701673  14.0471673  44.8683833  10.4651673
  14.7631673  44.5543833  10.5301673  16.1441673  44.7053833   7.9091673
  15.8581673  45.1063833   8.6291673  17.0041673  44.6433833   8.0361673
  16.2291673  44.7553833   8.0341673   5.8331673  41.5073833   1.8171673
   6.1051673  42.3333833   1.8841673   4.9701673  41.5823833   1.7211673
   5.7461673  41.6403833   1.8121673  13.8061673  38.6293833  16.4491673
  13.2811673  39.0883833  16.9731673  13.4451673  37.8343833  16.4431673
  13.6751673  38.5793833  16.5251673  17.2751673  50.3383833   8.4381673
  17.5651673  50.5953833   7.6571673  17.9701673  50.4343833   8.9571673
  17.4211673  50.3903833   8.3991673  12.2981673  42.1983833  16.5251673
  12.3711673  42.3023833  17.3881673  11.6641673  42.7563833  16.3041673
  12.2151673  42.2963833  16.6201673  14.5661673  42.5173833  14.8901673
  14.8851673  43.3033833  15.0931673  14.1961673  42.2473833  15.6331673
  14.5591673  42.5933833  15.0301673  14.3621673  40.7753833   6.0791673
  13.6171673  40.4523833   6.3971673  14.3641673  41.6013833   6.3591673
  14.2521673  40.8493833   6.1671673  17.2641673  43.0593833  17.6251673
  17.2121673  42.7183833  16.8241673  18.0011673  43.5263833  17.6031673
  17.3651673  43.0783833  17.5031673  16.8021673  46.7353833  13.8311673
  17.4301673  46.1863833  13.5751673  16.7411673  47.3003833  13.1691673
  16.8861673  46.7383833  13.6951673   5.9361673  47.9663833  11.1271673
   5.6381673  48.5583833  11.6941673   5.9911673  48.4083833  10.3781673
   5.9001673  48.1193833  11.1001673   3.9151673  46.9163833  14.5251673
   3.1091673  46.6263833  14.6921673   3.8261673  47.7843833  14.5311673
   3.7831673  47.0013833  14.5501673  13.2741673  37.1053833  13.5401673
  14.0181673  37.5573833  13.4771673  12.7081673  37.5753833  13.0711673
  13.3011673  37.2423833  13.4621673   8.4521673  44.3893833  10.6181673
   8.9281673  44.7633833  11.2461673   7.6291673  44.5233833  10.8771673
   8.4011673  44.4643833  10.7491673   5.1621673  39.9923833  13.3591673
   5.3231673  39.2483833  13.7861673   5.1171673  39.7433833  12.5241673
   5.1791673  39.8453833  13.2991673   7.7161673  51.7823833   5.8461673
   8.2621673  52.4613833   5.9001673   7.3661673  51.8643833   5.0511673
   7.7451673  51.8953833   5.7361673  14.5591673  35.0853833  11.2101673
  14.2791673  35.9103833  11.1661673  15.2751673  35.1383833  11.7061673
  14.6241673  35.2153833  11.2771673   6.9141673  35.8003833  13.2391673
   7.6191673  36.1203833  12.8371673   7.1551673  34.9933833  13.4661673
   7.0531673  35.7283833  13.2131673   5.8991673  50.0103833   9.2351673
   5.2751673  50.5923833   9.0531673   6.1471673  49.7243833   8.4491673
   5.8431673  50.0543833   9.0921673  10.2081673  46.6443833  16.2241673
  10.9651673  46.9303833  15.8981673   9.6611673  46.6963833  15.5461673
  10.2391673  46.6943833  16.0751673  14.1171673  49.1943833  14.7281673
  14.4631673  49.4643833  15.4821673  14.4111673  49.7763833  14.1481673
  14.2121673  49.3203833  14.7541673   3.4231673  40.8533833   9.3001673
   3.8631673  40.7503833   8.5541673   3.9681673  40.5403833   9.9051673
   3.5681673  40.7923833   9.2791673  11.4391673  39.9553833  14.8921673
  10.7911673  40.4253833  15.2401673  12.0041673  39.8663833  15.5511673
  11.4271673  40.0113833  15.0411673  11.1271673  41.4923833  11.1901673
  11.4291673  41.9123833  11.8931673  11.1631673  40.6523833  11.4221673
  11.1771673  41.4303833  11.3281673   8.5521673  51.6593833  15.1151673
   9.0301673  51.0593833  14.6991673   8.2011673  51.2163833  15.7801673
   8.5711673  51.5053833  15.1521673  13.6751673  40.9393833   3.4421673
  13.8821673  40.7383833   4.2661673  14.4311673  41.2073833   3.1001673
  13.8171673  40.9493833   3.5131673   6.9701673  35.8383833   9.3471673
   6.1441673  35.6893833   9.5841673   6.9301673  35.8733833   8.4761673
   6.8421673  35.8213833   9.2531673  14.6971673  37.0223833   4.9161673
  13.9831673  36.5513833   5.0871673  14.5351673  37.3633833   4.1301673
  14.5681673  37.0033833   4.8251673  15.1401673  44.9663833   3.2961673
  15.6161673  44.2373833   3.2481673  14.3191673  44.6803833   3.2201673
  15.0891673  44.8163833   3.2771673   8.6111673  46.8783833  14.1351673
   7.8161673  46.8143833  14.4861673   8.6821673  47.7253833  13.9401673
   8.5041673  46.9933833  14.1581673   4.4411673  53.0853833   9.4521673
   4.4521673  53.1443833  10.3221673   4.0161673  52.3383833   9.3021673
   4.3801673  52.9833833   9.5581673   2.5991673  38.9803833   2.6071673
   2.7251673  38.6513833   1.8091673   1.7871673  38.7313833   2.8061673
   2.4981673  38.8953833   2.5191673  11.3561673  46.1333833   5.6511673
  11.4321673  46.4743833   6.4501673  11.5251673  45.2863833   5.7721673
  11.3921673  46.0583833   5.7871673   8.8781673  45.4073833   5.2161673
   8.5801673  45.0923833   5.9731673   9.5731673  45.8803833   5.4511673
   8.9371673  45.4303833   5.3631673   9.1001673  49.5253833  13.2431673
   9.7871673  49.4113833  13.7681673   9.2341673  50.3163833  12.8991673
   9.2211673  49.6253833  13.2701673  17.2761673  42.1343833  15.0541673
  16.4211673  42.0123833  15.1801673  17.4291673  41.7393833  14.2911673
  17.1721673  42.0573833  14.9601673  11.7891673  42.7993833  13.6301673
  11.5341673  42.0803833  14.0521673  12.6101673  42.9153833  13.9001673
  11.8731673  42.7103833  13.7321673   9.7231673  43.9893833  16.8171673
  10.0461673  44.6753833  16.3851673   9.0191673  44.3123833  17.2191673
   9.6661673  44.1383833  16.8121673  12.8071673  52.3633833   7.7461673
  12.3561673  53.0063833   8.1251673  13.5151673  52.2843833   8.2511673
  12.8451673  52.4463833   7.8771673   9.5081673  47.4533833  10.6761673
   8.8141673  47.8553833  11.0191673  10.1851673  47.8863833  11.0151673
   9.5051673  47.5763833  10.7771673  14.8851673  50.0463833  17.2561673
  15.6611673  49.6563833  17.3391673  14.4161673  49.7103833  17.9111673
  14.9301673  49.9393833  17.3651673   2.5761673  40.9913833  13.0231673
   2.9511673  41.6103833  12.5361673   3.2501673  40.5173833  13.3081673
   2.7311673  41.0133833  12.9931673  15.9101673  42.0793833   2.7381673
  16.0131673  42.0213833   1.8741673  16.6511673  41.7473833   3.0561673
  16.0351673  42.0223833   2.6571673   2.9051673  36.8493833  14.7091673
   2.8241673  36.0053833  14.9151673   2.5911673  36.8933833  13.8961673
   2.8471673  36.7313833  14.6191673   9.8301673  49.0443833   3.8451673
   9.6251673  49.8773833   3.6861673   9.0551673  48.6623833   3.9671673
   9.6851673  49.1113833   3.8401673  15.0121673  42.2253833  12.0941673
  15.0101673  41.3623833  12.2181673  15.0791673  42.5493833  12.9011673
  15.0221673  42.1453833  12.2311673  10.8911673  37.0253833  15.8761673
  10.9831673  37.7373833  16.3701673  10.2541673  36.5803833  16.2731673
  10.8101673  37.0643833  16.0081673   9.8851673  37.2153833   6.7301673
   9.1851673  37.7333833   6.6741673   9.9231673  36.8353833   5.9461673
   9.7871673  37.2363833   6.6061673  13.4831673  37.7313833   9.5301673
  14.3381673  37.8303833   9.6751673  13.1141673  38.2843833  10.0951673
  13.5551673  37.8283833   9.6351673   4.5111673  43.9573833  13.9071673
   4.1151673  44.7313833  13.9821673   4.1051673  43.5843833  13.2311673
   4.3931673  44.0163833  13.8181673  13.7871673  43.0113833   8.0211673
  14.4531673  43.5523833   8.1811673  13.4421673  43.3223833   7.2821673
  13.8341673  43.1373833   7.9361673  14.1001673  51.0773833   3.8281673
  13.9261673  50.4233833   4.3781673  14.8131673  50.8063833   3.4051673
  14.1801673  50.9403833   3.8471673   4.9401673  36.9343833  11.3571673
   4.0761673  37.0183833  11.4371673   5.1601673  36.4203833  12.0261673
   4.8451673  36.8713833  11.4681673  16.9581673  35.5693833  12.6861673
  16.9061673  35.5253833  13.5561673  17.6451673  35.0663833  12.4961673
  17.0521673  35.4893833  12.7861673   9.0431673  37.6823833   9.7311673
   8.3061673  37.2283833   9.8441673   9.6141673  37.2803833  10.2541673
   9.0181673  37.5553833   9.8251673  11.7751673  48.5303833  11.5191673
  11.9811673  48.8313833  12.3111673  11.7141673  49.2523833  11.0341673
  11.7961673  48.6813833  11.5641673  11.3091673  52.7443833  15.7651673
  10.5561673  52.7263833  15.3241673  11.4771673  53.5963833  15.8491673
  11.2231673  52.8673833  15.7121673   6.5461673  42.0113833  14.9351673
   6.2241673  41.4353833  14.3651673   6.1871673  42.7663833  14.6891673
   6.4461673  42.0373833  14.8151673  16.5871673  47.1693833  10.9771673
  16.5551673  46.3073833  10.8421673  15.8941673  47.4713833  10.5431673
  16.4801673  47.0863833  10.8931673   4.9811673  52.3673833  15.1831673
   5.0221673  52.4933833  16.0461673   5.6321673  51.8073833  15.0271673
   5.0831673  52.3033833  15.2881673  14.6921673  50.4293833   9.7741673
  15.2191673  50.3463833   9.0831673  14.3011673  49.6513833   9.8281673
  14.7121673  50.3023833   9.6801673  11.2061673  35.8733833   8.9821673
  11.8761673  36.4173833   9.1091673  10.7031673  36.2973833   8.4091673
  11.2311673  36.0163833   8.9161673   2.5741673  50.7503833  16.5431673
   3.1691673  51.1813833  17.0151673   2.2101673  51.3743833  16.0541673
   2.6081673  50.9063833  16.5401673  10.5651673  41.6813833   6.4751673
  11.1161673  41.0743833   6.7751673  10.1401673  41.9443833   7.1901673
  10.5841673  41.6303833   6.6241673  12.5351673  43.5123833   3.0371673
  12.6031673  42.6623833   3.2181673  11.7121673  43.5983833   2.7591673
  12.4231673  43.3993833   3.0231673   2.2871673  52.0063833   2.2471673
   2.1421673  52.1623833   1.4011673   3.1531673  52.0853833   2.3251673
   2.3941673  52.0413833   2.1341673  15.8091673  44.8853833  16.1881673
  16.4431673  44.7153833  16.7621673  16.2261673  45.2883833  15.5361673
  15.9641673  44.9203833  16.1771673  11.6891673  48.7323833   1.7771673
  11.4381673  48.6043833   2.6031673  11.3721673  48.0373833   1.3561673
  11.6051673  48.6113833   1.8371673  16.4341673  39.4493833  16.9261673
  16.2381673  40.0933833  17.4811673  15.7121673  38.9593833  16.9181673
  16.2991673  39.4723833  17.0071673  16.3331673  40.3903833   9.8971673
  15.5001673  40.6403833   9.8251673  16.2771673  39.5503833  10.1261673
  16.2021673  40.3033833   9.9201673   5.5931673  37.3783833  15.0911673
   5.8271673  36.8023833  14.4781673   4.7511673  37.1973833  15.2321673
   5.5031673  37.2663833  15.0211673  13.2201673  44.9963833  17.5431673
  14.0911673  44.9603833  17.5071673  13.0011673  45.4163833  16.8111673
  13.3171673  45.0523833  17.4301673   2.9741673  50.8213833   8.7241673
   2.8951673  50.0113833   8.4081673   2.5301673  51.3083833   8.1521673
   2.8971673  50.7733833   8.5931673   9.9841673  17.1032753  80.4771313
   9.7391673  17.5912753  79.7971313  10.8471673  17.0302753  80.3771313
  10.0751673  17.1642753  80.3621313   9.7931673  24.0192753  85.1481313
   9.2691673  24.6152753  85.5111313  10.1901673  23.6512753  85.8321313
   9.7741673  24.0532753  85.3031313  15.9371673  31.4602753  78.1191313
  16.6381673  30.9412753  78.1151313  15.3501673  31.0152753  77.6501313
  15.9541673  31.3172753  78.0491313   2.5441673  27.2142753  75.7831313
   2.1521673  26.8432753  75.0971313   2.4641673  26.6162753  76.4121313
   2.4741673  27.0712753  75.7741313  12.4641673  25.0862753  81.8241313
  12.5441673  25.0902753  80.9551313  11.8801673  24.4542753  81.9731313
  12.3891673  24.9932753  81.7181313   6.4531673  18.1902753  79.6321313
   6.3831673  18.8672753  79.0861313   7.1941673  17.8022753  79.3831313
   6.5521673  18.2332753  79.5141313   5.5561673  21.0252753  86.4081313
   6.2341673  21.0432753  85.8591313   5.5111673  20.1892753  86.6531313
   5.6491673  20.9042753  86.3631313   6.1581673  31.6112753  89.1891313
   6.2961673  32.3712753  88.7821313   6.9491673  31.2462753  89.2161313
   6.2951673  31.6702753  89.1331313   3.0491673  23.5152753  81.0841313
   3.8661673  23.3282753  81.3271313   2.5721673  22.9012753  81.4801313
   3.0991673  23.3972753  81.1791313   7.2531673  29.4962753  83.6941313
   7.6011673  28.6972753  83.7241313   7.9181673  30.0002753  83.4391313
   7.4031673  29.4522753  83.6611313   7.3101673  28.9452753  79.9051313
   7.6411673  28.3012753  80.3911313   7.5501673  28.7342753  79.0941313
   7.3941673  28.8192753  79.8571313   3.6461673  18.6092753  80.3501313
   3.3501673  19.1102753  79.7001313   4.5131673  18.6872753  80.2931313
   3.7301673  18.6952753  80.2461313  13.8361673  16.0362753  90.3581313
  13.6781673  16.8052753  89.9761313  13.0641673  15.8162753  90.7021313
  13.6981673  16.1172753  90.3531313   6.6251673  17.7512753  82.5731313
   6.6981673  18.6112753  82.7021313   6.5871673  17.6762753  81.7051313
   6.6301673  17.8672753  82.4641313  11.2981673  20.6772753  74.8721313
  10.8481673  21.3582753  75.1791313  11.4121673  20.1732753  75.5751313
  11.2491673  20.7032753  75.0211313   5.2541673  30.7302753  79.4541313
   4.6751673  30.4552753  80.0461313   5.8781673  30.1212753  79.4791313
   5.2611673  30.6002753  79.5451313  11.3971673  33.0182753  76.9761313
  12.1241673  33.4902753  77.0781313  11.6261673  32.2242753  77.2561313
  11.5391673  32.9712753  77.0331313   9.5651673  33.4102753  78.9661313
   9.7791673  33.9372753  79.6281313  10.3321673  33.2362753  78.5871313
   9.7101673  33.4622753  79.0081313   2.5331673  17.9932753  84.5651313
   2.0121673  17.3652753  84.2571313   3.1241673  17.5562753  85.0361313
   2.5441673  17.8352753  84.5891313  16.6921673  20.6502753  81.1671313
  16.3461673  21.3282753  81.5931313  16.0561673  20.0522753  81.1831313
  16.5471673  20.6622753  81.2321313  12.0041673  33.4202753  87.2711313
  12.7481673  33.8762753  87.2611313  11.8831673  33.2062753  86.4341313
  12.0961673  33.4562753  87.1461313   1.7771673  30.0432753  83.4051313
   2.2001673  29.6872753  82.7311313   2.1011673  29.6212753  84.0971313
   1.8871673  29.9282753  83.4081313   5.0081673  32.8952753  82.7011313
   5.8521673  32.9992753  82.5061313   4.7111673  33.7132753  82.7691313
   5.0891673  33.0312753  82.6821313   8.8151673  22.2922753  80.7881313
   9.1021673  22.0602753  79.9981313   9.5471673  22.3712753  81.2571313
   8.9651673  22.2692753  80.7411313   9.5371673  22.6312753  75.9091313
   9.8181673  23.4192753  76.1581313   8.7611673  22.7962753  75.5461313
   9.4641673  22.7722753  75.8921313  13.5781673  34.6052753  77.3761313
  14.2431673  34.4572753  76.8311313  13.9381673  34.5222753  78.1661313
  13.7301673  34.5712753  77.4121313   4.0061673  34.1142753  88.4411313
   4.2981673  34.0472753  89.2611313   3.3801673  33.5092753  88.3961313
   3.9571673  34.0152753  88.5561313  16.3671673  18.9732753  86.5361313
  17.1241673  19.0452753  86.1081313  16.4301673  18.2002753  86.9351313
  16.4881673  18.8702753  86.5311313   8.3961673  30.8022753  75.7251313
   8.2151673  31.3472753  76.3821313   9.1621673  31.0922753  75.4241313
   8.4821673  30.9262753  75.7781313  11.9031673  18.6982753  76.7791313
  12.4431673  18.0162753  76.8551313  11.9651673  19.0962753  77.5531313
  11.9921673  18.6562753  76.9051313   9.1611673  21.0742753  78.0931313
   8.6531673  20.4122753  77.8391313   9.2131673  21.5782753  77.3831313
   9.0941673  21.0512753  77.9511313   9.7101673  33.7692753  88.4731313
  10.4781673  33.6892753  88.0671313   9.1271673  33.6482753  87.8351313
   9.7371673  33.7392753  88.3191313   9.1611673  18.0152753  77.9841313
   8.7061673  17.6132753  77.3581313   9.9341673  18.1702753  77.6091313
   9.2081673  17.9792753  77.8361313  15.9871673  34.3722753  81.3741313
  15.5321673  35.0892753  81.5751313  15.3731673  33.8012753  81.1321313
  15.8291673  34.3942753  81.3681313   7.7591673  20.3822753  82.5061313
   7.8331673  20.9502753  81.8481313   7.8801673  20.8742753  83.2161313
   7.7871673  20.5392753  82.5141313  12.9841673  30.2172753  80.9181313
  13.6851673  29.7352753  81.1071313  12.3241673  29.6482753  80.9631313
  12.9901673  30.0622753  80.9521313   3.3601673  31.1272753  90.1301313
   4.2011673  31.1902753  89.9081313   3.3231673  31.5242753  90.9061313
   3.4791673  31.1952753  90.2121313   2.3671673  16.2052753  80.8541313
   2.9031673  16.8932753  80.8441313   2.3701673  15.9312753  80.0261313
   2.4461673  16.2662753  80.7301313   5.3231673  26.6382753  84.8791313
   5.4951673  26.4282753  85.7081313   4.6681673  26.1042753  84.6631313
   5.2521673  26.5282753  84.9701313  11.5511673  20.5522753  88.3941313
  11.4561673  20.8712753  89.2001313  10.9581673  19.9132753  88.3561313
  11.4491673  20.5042753  88.5081313   6.0731673  26.5762753  87.4691313
   6.1261673  27.4232753  87.6711313   5.7881673  26.2062753  88.2061313
   6.0391673  26.6462753  87.6071313  12.2501673  27.2712753  86.5991313
  11.7361673  26.8592753  87.1701313  12.1241673  28.1152753  86.7801313
  12.1561673  27.3352753  86.7101313  12.8071673  16.4962753  81.2301313
  12.8561673  16.1782753  82.0411313  13.1301673  15.8522753  80.7371313
  12.8621673  16.3542753  81.2771313  15.2711673  20.7322753  89.5381313
  16.0431673  20.5072753  89.8751313  14.7961673  20.9492753  90.2381313
  15.3151673  20.7312753  89.6911313   2.8151673  20.0152753  82.5081313
   3.0871673  19.5852753  81.8001313   2.6391673  19.3792753  83.0791313
   2.8291673  19.8582753  82.4881313  15.5031673  27.7102753  76.7261313
  15.6221673  27.4232753  77.5411313  16.3101673  27.7312753  76.3961313
  15.6391673  27.6712753  76.7981313   2.6391673  27.4422753  82.0571313
   3.4901673  27.3622753  81.8841313   2.2821673  26.7602753  81.6451313
   2.7121673  27.3292753  81.9701313  13.3981673  24.2472753  76.3111313
  13.1781673  24.9782753  75.8891313  12.9501673  24.2982753  77.0581313
  13.2991673  24.3622753  76.3591313   5.0071673  27.4492753  80.2921313
   5.7201673  27.9442753  80.3821313   5.2291673  26.8822753  79.6661313
   5.1451673  27.4382753  80.2131313  17.5851673  19.1082753  75.7641313
  16.9231673  18.5402753  75.7871313  17.3921673  19.6202753  75.0841313
  17.4591673  19.1002753  75.6671313  17.9081673  23.4862753  88.3201313
  18.1231673  22.6862753  88.0441313  17.0581673  23.5462753  88.1311313
  17.8141673  23.3772753  88.2511313  15.5871673  18.6662753  78.0431313
  16.3331673  18.2592753  78.2421313  15.8501673  19.3812753  77.6181313
  15.7361673  18.7122753  78.0101313   9.5301673  31.1522753  82.6191313
   9.0071673  31.7862753  82.3261313   9.8401673  30.7882753  81.8901313
   9.4981673  31.1922753  82.4681313   3.6051673  28.9402753  85.3791313
   4.0721673  29.2292753  86.0571313   4.1771673  28.4622753  84.9251313
   3.7591673  28.9122753  85.4121313  12.0411673  20.9542753  83.1161313
  12.3851673  21.1062753  83.9031313  11.5881673  20.2162753  83.2291313
  12.0251673  20.8672753  83.2491313   6.5171673  20.1742753  77.5731313
   6.5151673  20.0572753  76.7081313   6.3361673  21.0222753  77.6651313
   6.4901673  20.2822753  77.4591313  15.5711673  32.6012753  89.0701313
  14.9001673  33.1152753  89.2881313  15.6341673  32.7012753  88.2061313
  15.4811673  32.6922753  88.9751313   4.2551673  30.1262753  82.2051313
   4.3811673  30.9692753  82.3921313   4.9231673  29.7272753  82.6011313
   4.3731673  30.1922753  82.2911313   2.8701673  23.0062753  77.2071313
   2.7421673  22.5582753  77.9451313   2.2881673  22.6642753  76.6551313
   2.7651673  22.8892753  77.2351313   3.0371673  24.8362753  83.8061313
   2.2561673  24.7772753  83.4231313   3.1091673  24.0842753  84.2431313
   2.9321673  24.7172753  83.8141313   3.4671673  24.5732753  87.2741313
   3.4921673  23.8982753  86.7231313   2.8211673  25.0692753  86.9621313
   3.3761673  24.5462753  87.1471313  13.3621673  22.2862753  85.6701313
  12.7001673  22.6142753  86.1331313  13.5491673  22.9202753  85.1011313
  13.2921673  22.4282753  85.6541313   7.5671673  33.3502753  86.6661313
   7.2901673  32.7092753  86.1431313   7.3591673  34.0762753  86.2281313
   7.4961673  33.3632753  86.5241313  10.0071673  18.1922753  89.0991313
  10.1561673  17.3672753  88.8561313  10.3861673  18.2472753  89.8831313
  10.0851673  18.0782753  89.1791313  11.5551673  20.2552753  79.1811313
  12.0451673  20.9722753  79.1041313  10.7651673  20.5162753  78.9181313
  11.5111673  20.3992753  79.1311313  12.8691673  28.1332753  91.0911313
  13.3531673  28.8512753  91.1891313  13.2631673  27.7062753  90.4401313
  12.9991673  28.1762753  91.0091313   8.1371673  21.7252753  84.9061313
   8.6171673  22.4242753  85.1141313   8.5101673  21.0782753  85.3571313
   8.2631673  21.7332753  85.0031313  10.3261673  24.8942753  77.1801313
  10.3181673  25.6162753  76.6901313   9.6871673  25.0292753  77.7571313
  10.2311673  25.0212753  77.1931313  15.2981673  28.7642753  81.1611313
  15.6541673  28.4142753  81.8761313  15.2901673  28.1032753  80.5911313
  15.3501673  28.6142753  81.1821313  11.3431673  31.8302753  85.0051313
  10.7401673  31.5342753  84.4481313  11.8881673  32.2822753  84.4961313
  11.3341673  31.8532753  84.8471313  11.3561673  28.6812753  84.4051313
  10.5591673  28.9052753  84.6791313  11.6141673  28.0872753  84.9901313
  11.2761673  28.6262753  84.5321313   5.2481673  33.4932753  78.8531313
   5.1011673  32.7172753  79.2241313   5.9371673  33.3462753  78.3381313
   5.3281673  33.3562753  78.8321313   4.9191673  17.2362753  76.8411313
   5.0161673  17.1292753  77.7021313   4.2111673  17.7422753  76.7761313
   4.8291673  17.2952753  76.9591313   7.5401673  33.0092753  77.2551313
   8.1621673  33.1722753  77.8451313   7.5761673  33.7002753  76.7231313
   7.6371673  33.1352753  77.2641313  14.6161673  26.6792753  89.2511313
  14.6711673  26.8042753  88.3891313  15.3691673  26.9992753  89.5531313
  14.7351673  26.7442753  89.1681313   2.0411673  25.5432753  78.0841313
   2.3651673  24.7642753  77.8621313   2.6871673  25.9112753  78.5391313
   2.1841673  25.4822753  78.1181313  10.3471673  26.4852753  88.8511313
  10.1921673  27.0952753  89.4551313  10.8811673  25.9272753  89.2571313
  10.4031673  26.4932753  89.0001313   8.7311673  24.8852753  79.5091313
   8.7901673  25.5352753  80.0881313   8.5421673  24.1892753  80.0001313
   8.7121673  24.8782753  79.6671313  13.9571673  29.2142753  85.3781313
  13.4781673  29.5122753  84.7121313  13.6011673  28.4382753  85.5561313
  13.8341673  29.1432753  85.3061313   3.2271673  19.4022753  76.0211313
   2.7161673  19.4552753  75.3151313   4.0111673  19.6422753  75.7251313
   3.2671673  19.4452753  75.8731313   7.9541673  26.9322753  83.9401313
   7.1071673  26.7382753  84.0211313   8.2781673  26.7672753  84.7331313
   7.8761673  26.8792753  84.0691313   4.7061673  33.6622753  74.8261313
   5.1451673  32.9652753  75.1141313   4.9131673  34.2862753  75.3991313
   4.8021673  33.6512753  74.9531313   5.0321673  21.7962753  82.9911313
   5.8781673  21.6062753  83.0891313   4.6621673  21.0192753  82.8531313
   5.1021673  21.6532753  82.9851313  17.6491673  33.3802753  77.3181313
  18.3431673  32.9132753  77.0701313  17.1101673  32.7822753  77.6551313
  17.6721673  33.2222753  77.3311313  14.8881673  26.1562753  86.4971313
  14.8811673  25.3802753  86.8951313  14.0471673  26.3902753  86.4901313
  14.7631673  26.0762753  86.5551313   4.3781673  24.5682753  75.1321313
   3.7681673  24.1632753  75.6061313   3.9921673  24.6862753  74.3591313
   4.2311673  24.5252753  75.0881313  16.1441673  26.2272753  83.9341313
  15.8581673  26.6282753  84.6541313  17.0041673  26.1652753  84.0611313
  16.2291673  26.2772753  84.0591313   5.8331673  23.0292753  77.8421313
   6.1051673  23.8552753  77.9091313   4.9701673  23.1042753  77.7461313
   5.7461673  23.1622753  77.8371313  17.2751673  31.8602753  84.4631313
  17.5651673  32.1172753  83.6821313  17.9701673  31.9562753  84.9821313
  17.4211673  31.9122753  84.4241313  13.8801673  30.4632753  76.4451313
  14.2141673  29.6572753  76.4801313  13.1251673  30.3912753  76.8751313
  13.8181673  30.3332753  76.5141313  14.3621673  22.2972753  82.1041313
  13.6171673  21.9742753  82.4221313  14.3641673  23.1232753  82.3841313
  14.2521673  22.3712753  82.1921313  16.8021673  28.2572753  89.8561313
  17.4301673  27.7082753  89.6001313  16.7411673  28.8222753  89.1941313
  16.8861673  28.2602753  89.7201313  11.2541673  28.3382753  75.8481313
  11.9381673  27.8242753  75.6791313  10.8371673  28.3842753  75.0831313
  11.2931673  28.2692753  75.7101313   5.9361673  29.4882753  87.1521313
   5.6381673  30.0802753  87.7191313   5.9911673  29.9302753  86.4031313
   5.9001673  29.6412753  87.1251313   3.9151673  28.4382753  90.5501313
   3.1091673  28.1482753  90.7171313   3.8261673  29.3062753  90.5561313
   3.7831673  28.5232753  90.5751313  13.2741673  18.6272753  89.5651313
  14.0181673  19.0792753  89.5021313  12.7081673  19.0972753  89.0961313
  13.3011673  18.7642753  89.4871313   8.4521673  25.9112753  86.6431313
   8.9281673  26.2852753  87.2711313   7.6291673  26.0452753  86.9021313
   8.4011673  25.9862753  86.7741313   5.1621673  21.5142753  89.3841313
   5.3231673  20.7702753  89.8111313   5.1171673  21.2652753  88.5491313
   5.1791673  21.3672753  89.3241313   7.7161673  33.3042753  81.8711313
   8.2621673  33.9832753  81.9251313   7.3661673  33.3862753  81.0761313
   7.7451673  33.4172753  81.7611313  14.5591673  16.6072753  87.2351313
  14.2791673  17.4322753  87.1911313  15.2751673  16.6602753  87.7311313
  14.6241673  16.7372753  87.3021313   6.9141673  17.3222753  89.2641313
   7.6191673  17.6422753  88.8621313   7.1551673  16.5152753  89.4911313
   7.0531673  17.2502753  89.2381313   5.8991673  31.5322753  85.2601313
   5.2751673  32.1142753  85.0781313   6.1471673  31.2462753  84.4741313
   5.8431673  31.5762753  85.1171313  15.9801673  22.8622753  76.0921313
  16.3581673  23.5392753  75.6921313  15.1381673  23.0862753  76.1231313
  15.9111673  22.9952753  76.0371313   7.4931673  26.3082753  75.1751313
   6.6881673  26.1312753  74.8901313   7.4601673  27.1592753  75.3671313
   7.3691673  26.4072753  75.1621313   3.4231673  22.3752753  85.3251313
   3.8631673  22.2722753  84.5791313   3.9681673  22.0622753  85.9301313
   3.5681673  22.3142753  85.3041313  11.1271673  23.0142753  87.2151313
  11.4291673  23.4342753  87.9181313  11.1631673  22.1742753  87.4471313
  11.1771673  22.9522753  87.3531313  13.6751673  22.4612753  79.4671313
  13.8821673  22.2602753  80.2911313  14.4311673  22.7292753  79.1251313
  13.8171673  22.4712753  79.5381313   6.9701673  17.3602753  85.3721313
   6.1441673  17.2112753  85.6091313   6.9301673  17.3952753  84.5011313
   6.8421673  17.3432753  85.2781313  14.6971673  18.5442753  80.9411313
  13.9831673  18.0732753  81.1121313  14.5351673  18.8852753  80.1551313
  14.5681673  18.5252753  80.8501313  15.1401673  26.4882753  79.3211313
  15.6161673  25.7592753  79.2731313  14.3191673  26.2022753  79.2451313
  15.0891673  26.3382753  79.3021313   8.6111673  28.4002753  90.1601313
   7.8161673  28.3362753  90.5111313   8.6821673  29.2472753  89.9651313
   8.5041673  28.5152753  90.1831313   4.4411673  34.6072753  85.4771313
   4.4521673  34.6662753  86.3471313   4.0161673  33.8602753  85.3271313
   4.3801673  34.5052753  85.5831313   2.5991673  20.5022753  78.6321313
   2.7251673  20.1732753  77.8341313   1.7871673  20.2532753  78.8311313
   2.4981673  20.4172753  78.5441313  11.3561673  27.6552753  81.6761313
  11.4321673  27.9962753  82.4751313  11.5251673  26.8082753  81.7971313
  11.3921673  27.5802753  81.8121313   8.8781673  26.9292753  81.2411313
   8.5801673  26.6142753  81.9981313   9.5731673  27.4022753  81.4761313
   8.9371673  26.9522753  81.3881313   9.1001673  31.0472753  89.2681313
   9.7871673  30.9332753  89.7931313   9.2341673  31.8382753  88.9241313
   9.2211673  31.1472753  89.2951313  17.2761673  23.6562753  91.0791313
  16.4211673  23.5342753  91.2051313  17.4291673  23.2612753  90.3161313
  17.1721673  23.5792753  90.9851313  11.7891673  24.3212753  89.6551313
  11.5341673  23.6022753  90.0771313  12.6101673  24.4372753  89.9251313
  11.8731673  24.2322753  89.7571313  12.8071673  33.8852753  83.7711313
  12.3561673  34.5282753  84.1501313  13.5151673  33.8062753  84.2761313
  12.8451673  33.9682753  83.9021313   9.5081673  28.9752753  86.7011313
   8.8141673  29.3772753  87.0441313  10.1851673  29.4082753  87.0401313
   9.5051673  29.0982753  86.8021313   2.5761673  22.5132753  89.0481313
   2.9511673  23.1322753  88.5611313   3.2501673  22.0392753  89.3331313
   2.7311673  22.5352753  89.0181313  15.9101673  23.6012753  78.7631313
  16.0131673  23.5432753  77.8991313  16.6511673  23.2692753  79.0811313
  16.0351673  23.5442753  78.6821313   2.9051673  18.3712753  90.7341313
   2.8241673  17.5272753  90.9401313   2.5911673  18.4152753  89.9211313
   2.8471673  18.2532753  90.6441313   9.8301673  30.5662753  79.8701313
   9.6251673  31.3992753  79.7111313   9.0551673  30.1842753  79.9921313
   9.6851673  30.6332753  79.8651313  15.0121673  23.7472753  88.1191313
  15.0101673  22.8842753  88.2431313  15.0791673  24.0712753  88.9261313
  15.0221673  23.6672753  88.2561313   9.8851673  18.7372753  82.7551313
   9.1851673  19.2552753  82.6991313   9.9231673  18.3572753  81.9711313
   9.7871673  18.7582753  82.6311313   5.1921673  30.8282753  76.2791313
   5.6331673  30.9082753  77.0271313   4.3871673  30.6122753  76.5371313
   5.1381673  30.8082753  76.4281313  13.4831673  19.2532753  85.5551313
  14.3381673  19.3522753  85.7001313  13.1141673  19.8062753  86.1201313
  13.5551673  19.3502753  85.6601313   4.5111673  25.4792753  89.9321313
   4.1151673  26.2532753  90.0071313   4.1051673  25.1062753  89.2561313
   4.3931673  25.5382753  89.8431313  13.7871673  24.5332753  84.0461313
  14.4531673  25.0742753  84.2061313  13.4421673  24.8442753  83.3071313
  13.8341673  24.6592753  83.9611313  14.1001673  32.5992753  79.8531313
  13.9261673  31.9452753  80.4031313  14.8131673  32.3282753  79.4301313
  14.1801673  32.4622753  79.8721313   2.5211673  29.8982753  76.8801313
   2.2771673  29.5912753  77.6601313   2.4881673  29.1952753  76.3641313
   2.4801673  29.7492753  76.9191313   5.3401673  28.1432753  75.6231313
   4.5221673  27.8752753  75.7631313   5.3121673  28.9952753  75.8081313
   5.2151673  28.2302753  75.6711313   4.9401673  18.4562753  87.3821313
   4.0761673  18.5402753  87.4621313   5.1601673  17.9422753  88.0511313
   4.8451673  18.3932753  87.4931313  16.9581673  17.0912753  88.7111313
  16.9061673  17.0472753  89.5811313  17.6451673  16.5882753  88.5211313
  17.0521673  17.0112753  88.8111313   9.0431673  19.2042753  85.7561313
   8.3061673  18.7502753  85.8691313   9.6141673  18.8022753  86.2791313
   9.0181673  19.0772753  85.8501313  11.7751673  30.0522753  87.5441313
  11.9811673  30.3532753  88.3361313  11.7141673  30.7742753  87.0591313
  11.7961673  30.2032753  87.5891313   6.5461673  23.5332753  90.9601313
   6.2241673  22.9572753  90.3901313   6.1871673  24.2882753  90.7141313
   6.4461673  23.5592753  90.8401313   7.3421673  16.7852753  75.5871313
   7.4201673  17.0322753  74.7541313   6.5991673  17.1622753  75.8451313
   7.2441673  16.8772753  75.5021313  16.5871673  28.6912753  87.0021313
  16.5551673  27.8292753  86.8671313  15.8941673  28.9932753  86.5681313
  16.4801673  28.6082753  86.9181313  14.6921673  31.9512753  85.7991313
  15.2191673  31.8682753  85.1081313  14.3011673  31.1732753  85.8531313
  14.7121673  31.8242753  85.7051313  11.2061673  17.3952753  85.0071313
  11.8761673  17.9392753  85.1341313  10.7031673  17.8192753  84.4341313
  11.2311673  17.5382753  84.9411313  10.5651673  23.2032753  82.5001313
  11.1161673  22.5962753  82.8001313  10.1401673  23.4662753  83.2151313
  10.5841673  23.1522753  82.6491313  12.5351673  25.0342753  79.0621313
  12.6031673  24.1842753  79.2431313  11.7121673  25.1202753  78.7841313
  12.4231673  24.9212753  79.0481313   2.2871673  33.5282753  78.2721313
   2.1421673  33.6842753  77.4261313   3.1531673  33.6072753  78.3501313
   2.3941673  33.5632753  78.1591313   6.4541673  25.9252753  78.0001313
   6.5541673  26.0642753  77.1451313   7.2721673  25.8652753  78.2961313
   6.5891673  25.9362753  77.9171313  15.6141673  33.9892753  75.4801313
  16.2511673  33.8552753  76.0611313  15.2731673  33.1952753  75.3631313
  15.6581673  33.8522753  75.5481313  11.6891673  30.2542753  77.8021313
  11.4381673  30.1262753  78.6281313  11.3721673  29.5592753  77.3811313
  11.6051673  30.1332753  77.8621313  16.3331673  21.9122753  85.9221313
  15.5001673  22.1622753  85.8501313  16.2771673  21.0722753  86.1511313
  16.2021673  21.8252753  85.9451313   5.5931673  18.9002753  91.1161313
   5.8271673  18.3242753  90.5031313   4.7511673  18.7192753  91.2571313
   5.5031673  18.7882753  91.0461313   2.9741673  32.3432753  84.7491313
   2.8951673  31.5332753  84.4331313   2.5301673  32.8302753  84.1771313
   2.8971673  32.2952753  84.6181313   8.5751673  28.4622753  77.2321313
   9.2921673  28.1152753  76.8761313   8.5411673  29.2622753  76.8841313
   8.6761673  28.5292753  77.1281313   9.9841673  17.1032753  61.4708903
   9.7391673  17.5912753  60.7908903  10.8471673  17.0302753  61.3708903
  10.0751673  17.1642753  61.3558903   9.7931673  24.0192753  66.1418903
   9.2691673  24.6152753  66.5048903  10.1901673  23.6512753  66.8258903
   9.7741673  24.0532753  66.2968903  15.9371673  31.4602753  59.1128903
  16.6381673  30.9412753  59.1088903  15.3501673  31.0152753  58.6438903
  15.9541673  31.3172753  59.0428903   2.5441673  27.2142753  56.7768903
   2.1521673  26.8432753  56.0908903   2.4641673  26.6162753  57.4058903
   2.4741673  27.0712753  56.7678903  12.4641673  25.0862753  62.8178903
  12.5441673  25.0902753  61.9488903  11.8801673  24.4542753  62.9668903
  12.3891673  24.9932753  62.7118903   6.4531673  18.1902753  60.6258903
   6.3831673  18.8672753  60.0798903   7.1941673  17.8022753  60.3768903
   6.5521673  18.2332753  60.5078903   6.1761673  28.4192753  72.9198903
   5.9401673  28.4162753  73.7598903   5.4281673  28.2712753  72.4958903
   6.0301673  28.3962753  72.9808903   5.5561673  21.0252753  67.4018903
   6.2341673  21.0432753  66.8528903   5.5111673  20.1892753  67.6468903
   5.6491673  20.9042753  67.3568903   6.1581673  31.6112753  70.1828903
   6.2961673  32.3712753  69.7758903   6.9491673  31.2462753  70.2098903
   6.2951673  31.6702753  70.1268903   3.0491673  23.5152753  62.0778903
   3.8661673  23.3282753  62.3208903   2.5721673  22.9012753  62.4738903
   3.0991673  23.3972753  62.1728903   7.2531673  29.4962753  64.6878903
   7.6011673  28.6972753  64.7178903   7.9181673  30.0002753  64.4328903
   7.4031673  29.4522753  64.6548903   7.3101673  28.9452753  60.8988903
   7.6411673  28.3012753  61.3848903   7.5501673  28.7342753  60.0878903
   7.3941673  28.8192753  60.8508903   9.2781673  23.0762753  72.2378903
   8.4301673  22.9772753  72.0598903   9.3071673  23.8212753  72.6918903
   9.1571673  23.1722753  72.2788903   3.6461673  18.6092753  61.3438903
   3.3501673  19.1102753  60.6938903   4.5131673  18.6872753  61.2868903
   3.7301673  18.6952753  61.2398903  13.8361673  16.0362753  71.3518903
  13.6781673  16.8052753  70.9698903  13.0641673  15.8162753  71.6958903
  13.6981673  16.1172753  71.3468903   6.6251673  17.7512753  63.5668903
   6.6981673  18.6112753  63.6958903   6.5871673  17.6762753  62.6988903
   6.6301673  17.8672753  63.4578903  11.2981673  20.6772753  55.8658903
  10.8481673  21.3582753  56.1728903  11.4121673  20.1732753  56.5688903
  11.2491673  20.7032753  56.0148903   5.2541673  30.7302753  60.4478903
   4.6751673  30.4552753  61.0398903   5.8781673  30.1212753  60.4728903
   5.2611673  30.6002753  60.5388903  11.3971673  33.0182753  57.9698903
  12.1241673  33.4902753  58.0718903  11.6261673  32.2242753  58.2498903
  11.5391673  32.9712753  58.0268903   9.5651673  33.4102753  59.9598903
   9.7791673  33.9372753  60.6218903  10.3321673  33.2362753  59.5808903
   9.7101673  33.4622753  60.0018903   2.5331673  17.9932753  65.5588903
   2.0121673  17.3652753  65.2508903   3.1241673  17.5562753  66.0298903
   2.5441673  17.8352753  65.5828903   5.8391673  20.1262753  74.8568903
   5.9561673  19.6722753  74.1208903   6.1271673  20.9242753  74.6538903
   5.8991673  20.1772753  74.7178903  16.6921673  20.6502753  62.1608903
  16.3461673  21.3282753  62.5868903  16.0561673  20.0522753  62.1768903
  16.5471673  20.6622753  62.2258903  12.0041673  33.4202753  68.2648903
  12.7481673  33.8762753  68.2548903  11.8831673  33.2062753  67.4278903
  12.0961673  33.4562753  68.1398903   1.7771673  30.0432753  64.3988903
   2.2001673  29.6872753  63.7248903   2.1011673  29.6212753  65.0908903
   1.8871673  29.9282753  64.4018903   5.0081673  32.8952753  63.6948903
   5.8521673  32.9992753  63.4998903   4.7111673  33.7132753  63.7628903
   5.0891673  33.0312753  63.6758903   8.2211673  17.3662753  73.0088903
   8.3991673  16.5572753  72.7338903   8.0781673  17.8072753  72.2698903
   8.2261673  17.3122753  72.8588903   8.8151673  22.2922753  61.7818903
   9.1021673  22.0602753  60.9918903   9.5471673  22.3712753  62.2508903
   8.9651673  22.2692753  61.7348903   9.5371673  22.6312753  56.9028903
   9.8181673  23.4192753  57.1518903   8.7611673  22.7962753  56.5398903
   9.4641673  22.7722753  56.8858903  13.5781673  34.6052753  58.3698903
  14.2431673  34.4572753  57.8248903  13.9381673  34.5222753  59.1598903
  13.7301673  34.5712753  58.4058903   4.0061673  34.1142753  69.4348903
   4.2981673  34.0472753  70.2548903   3.3801673  33.5092753  69.3898903
   3.9571673  34.0152753  69.5498903  16.3671673  18.9732753  67.5298903
  17.1241673  19.0452753  67.1018903  16.4301673  18.2002753  67.9288903
  16.4881673  18.8702753  67.5248903  11.2581673  30.6052753  71.9688903
  11.2241673  30.9872753  72.7528903  12.1121673  30.5632753  71.7978903
  11.3791673  30.6552753  72.0598903   8.3961673  30.8022753  56.7188903
   8.2151673  31.3472753  57.3758903   9.1621673  31.0922753  56.4178903
   8.4821673  30.9262753  56.7718903  11.9031673  18.6982753  57.7728903
  12.4431673  18.0162753  57.8488903  11.9651673  19.0962753  58.5468903
  11.9921673  18.6562753  57.8988903   9.1611673  21.0742753  59.0868903
   8.6531673  20.4122753  58.8328903   9.2131673  21.5782753  58.3768903
   9.0941673  21.0512753  58.9448903   9.7101673  33.7692753  69.4668903
  10.4781673  33.6892753  69.0608903   9.1271673  33.6482753  68.8288903
   9.7371673  33.7392753  69.3128903   9.1611673  18.0152753  58.9778903
   8.7061673  17.6132753  58.3518903   9.9341673  18.1702753  58.6028903
   9.2081673  17.9792753  58.8298903  15.9871673  34.3722753  62.3678903
  15.5321673  35.0892753  62.5688903  15.3731673  33.8012753  62.1258903
  15.8291673  34.3942753  62.3618903   7.7591673  20.3822753  63.4998903
   7.8331673  20.9502753  62.8418903   7.8801673  20.8742753  64.2098903
   7.7871673  20.5392753  63.5078903  12.9841673  30.2172753  61.9118903
  13.6851673  29.7352753  62.1008903  12.3241673  29.6482753  61.9568903
  12.9901673  30.0622753  61.9458903   3.3601673  31.1272753  71.1238903
   4.2011673  31.1902753  70.9018903   3.3231673  31.5242753  71.8998903
   3.4791673  31.1952753  71.2058903   2.3671673  16.2052753  61.8478903
   2.9031673  16.8932753  61.8378903   2.3701673  15.9312753  61.0198903
   2.4461673  16.2662753  61.7238903   5.3231673  26.6382753  65.8728903
   5.4951673  26.4282753  66.7018903   4.6681673  26.1042753  65.6568903
   5.2521673  26.5282753  65.9638903  11.5511673  20.5522753  69.3878903
  11.4561673  20.8712753  70.1938903  10.9581673  19.9132753  69.3498903
  11.4491673  20.5042753  69.5018903   6.0731673  26.5762753  68.4628903
   6.1261673  27.4232753  68.6648903   5.7881673  26.2062753  69.1998903
   6.0391673  26.6462753  68.6008903  12.2501673  27.2712753  67.5928903
  11.7361673  26.8592753  68.1638903  12.1241673  28.1152753  67.7738903
  12.1561673  27.3352753  67.7038903  12.8071673  16.4962753  62.2238903
  12.8561673  16.1782753  63.0348903  13.1301673  15.8522753  61.7308903
  12.8621673  16.3542753  62.2708903  15.2711673  20.7322753  70.5318903
  16.0431673  20.5072753  70.8688903  14.7961673  20.9492753  71.2318903
  15.3151673  20.7312753  70.6848903   2.8151673  20.0152753  63.5018903
   3.0871673  19.5852753  62.7938903   2.6391673  19.3792753  64.0728903
   2.8291673  19.8582753  63.4818903  15.5031673  27.7102753  57.7198903
  15.6221673  27.4232753  58.5348903  16.3101673  27.7312753  57.3898903
  15.6391673  27.6712753  57.7918903   2.6391673  27.4422753  63.0508903
   3.4901673  27.3622753  62.8778903   2.2821673  26.7602753  62.6388903
   2.7121673  27.3292753  62.9638903  17.7371673  32.2192753  71.9738903
  17.0551673  32.5292753  71.5268903  17.3681673  31.7612753  72.6188903
  17.5811673  32.1972753  72.0028903  13.3981673  24.2472753  57.3048903
  13.1781673  24.9782753  56.8828903  12.9501673  24.2982753  58.0518903
  13.2991673  24.3622753  57.3528903   5.0071673  27.4492753  61.2858903
   5.7201673  27.9442753  61.3758903   5.2291673  26.8822753  60.6598903
   5.1451673  27.4382753  61.2068903  17.5851673  19.1082753  56.7578903
  16.9231673  18.5402753  56.7808903  17.3921673  19.6202753  56.0778903
  17.4591673  19.1002753  56.6608903   6.8101673  22.8022753  74.7018903
   6.3261673  23.3792753  75.1438903   6.7821673  23.0972753  73.8808903
   6.7341673  22.9312753  74.6458903  17.9081673  23.4862753  69.3138903
  18.1231673  22.6862753  69.0378903  17.0581673  23.5462753  69.1248903
  17.8141673  23.3772753  69.2448903  15.5871673  18.6662753  59.0368903
  16.3331673  18.2592753  59.2358903  15.8501673  19.3812753  58.6118903
  15.7361673  18.7122753  59.0038903   9.5301673  31.1522753  63.6128903
   9.0071673  31.7862753  63.3198903   9.8401673  30.7882753  62.8838903
   9.4981673  31.1922753  63.4618903   3.6051673  28.9402753  66.3728903
   4.0721673  29.2292753  67.0508903   4.1771673  28.4622753  65.9188903
   3.7591673  28.9122753  66.4058903  12.0411673  20.9542753  64.1098903
  12.3851673  21.1062753  64.8968903  11.5881673  20.2162753  64.2228903
  12.0251673  20.8672753  64.2428903   6.5171673  20.1742753  58.5668903
   6.5151673  20.0572753  57.7018903   6.3361673  21.0222753  58.6588903
   6.4901673  20.2822753  58.4528903  15.5711673  32.6012753  70.0638903
  14.9001673  33.1152753  70.2818903  15.6341673  32.7012753  69.1998903
  15.4811673  32.6922753  69.9688903   4.2551673  30.1262753  63.1988903
   4.3811673  30.9692753  63.3858903   4.9231673  29.7272753  63.5948903
   4.3731673  30.1922753  63.2848903   2.3851673  23.6092753  73.0608903
   1.8491673  23.1032753  73.5288903   2.4051673  23.2192753  72.2808903
   2.3081673  23.4762753  73.0148903   2.8701673  23.0062753  58.2008903
   2.7421673  22.5582753  58.9388903   2.2881673  22.6642753  57.6488903
   2.7651673  22.8892753  58.2288903   3.0371673  24.8362753  64.7998903
   2.2561673  24.7772753  64.4168903   3.1091673  24.0842753  65.2368903
   2.9321673  24.7172753  64.8078903   3.4671673  24.5732753  68.2678903
   3.4921673  23.8982753  67.7168903   2.8211673  25.0692753  67.9558903
   3.3761673  24.5462753  68.1408903  13.3621673  22.2862753  66.6638903
  12.7001673  22.6142753  67.1268903  13.5491673  22.9202753  66.0948903
  13.2921673  22.4282753  66.6478903   7.5671673  33.3502753  67.6598903
   7.2901673  32.7092753  67.1368903   7.3591673  34.0762753  67.2218903
   7.4961673  33.3632753  67.5178903  10.0071673  18.1922753  70.0928903
  10.1561673  17.3672753  69.8498903  10.3861673  18.2472753  70.8768903
  10.0851673  18.0782753  70.1728903  11.5551673  20.2552753  60.1748903
  12.0451673  20.9722753  60.0978903  10.7651673  20.5162753  59.9118903
  11.5111673  20.3992753  60.1248903  12.8691673  28.1332753  72.0848903
  13.3531673  28.8512753  72.1828903  13.2631673  27.7062753  71.4338903
  12.9991673  28.1762753  72.0028903   7.1651673  30.9782753  73.2618903
   7.5191673  30.8002753  74.0388903   6.7291673  30.2492753  73.0628903
   7.1531673  30.8442753  73.3478903   8.1371673  21.7252753  65.8998903
   8.6171673  22.4242753  66.1078903   8.5101673  21.0782753  66.3508903
   8.2631673  21.7332753  65.9968903  10.3261673  24.8942753  58.1738903
  10.3181673  25.6162753  57.6838903   9.6871673  25.0292753  58.7508903
  10.2311673  25.0212753  58.1868903  15.2981673  28.7642753  62.1548903
  15.6541673  28.4142753  62.8698903  15.2901673  28.1032753  61.5848903
  15.3501673  28.6142753  62.1758903  11.3431673  31.8302753  65.9988903
  10.7401673  31.5342753  65.4418903  11.8881673  32.2822753  65.4898903
  11.3341673  31.8532753  65.8408903  11.3561673  28.6812753  65.3988903
  10.5591673  28.9052753  65.6728903  11.6141673  28.0872753  65.9838903
  11.2761673  28.6262753  65.5258903   5.2481673  33.4932753  59.8468903
   5.1011673  32.7172753  60.2178903   5.9371673  33.3462753  59.3318903
   5.3281673  33.3562753  59.8258903   4.9191673  17.2362753  57.8348903
   5.0161673  17.1292753  58.6958903   4.2111673  17.7422753  57.7698903
   4.8291673  17.2952753  57.9528903   7.5401673  33.0092753  58.2488903
   8.1621673  33.1722753  58.8388903   7.5761673  33.7002753  57.7168903
   7.6371673  33.1352753  58.2578903  14.6161673  26.6792753  70.2448903
  14.6711673  26.8042753  69.3828903  15.3691673  26.9992753  70.5468903
  14.7351673  26.7442753  70.1618903  10.8071673  32.0282753  74.5218903
  10.9711673  32.3112753  75.3308903  11.0701673  32.6892753  74.0168903
  10.8701673  32.1682753  74.5668903  15.6481673  16.9772753  73.2318903
  15.0111673  16.5772753  72.7898903  15.6741673  16.5462753  73.9898903
  15.5581673  16.8552753  73.2778903   2.0411673  25.5432753  59.0778903
   2.3651673  24.7642753  58.8558903   2.6871673  25.9112753  59.5328903
   2.1841673  25.4822753  59.1118903  10.3471673  26.4852753  69.8448903
  10.1921673  27.0952753  70.4488903  10.8811673  25.9272753  70.2508903
  10.4031673  26.4932753  69.9938903   8.7311673  24.8852753  60.5028903
   8.7901673  25.5352753  61.0818903   8.5421673  24.1892753  60.9938903
   8.7121673  24.8782753  60.6608903  13.9571673  29.2142753  66.3718903
  13.4781673  29.5122753  65.7058903  13.6011673  28.4382753  66.5498903
  13.8341673  29.1432753  66.2998903   3.2271673  19.4022753  57.0148903
   2.7161673  19.4552753  56.3088903   4.0111673  19.6422753  56.7188903
   3.2671673  19.4452753  56.8668903   7.9541673  26.9322753  64.9338903
   7.1071673  26.7382753  65.0148903   8.2781673  26.7672753  65.7268903
   7.8761673  26.8792753  65.0628903   4.7061673  33.6622753  55.8198903
   5.1451673  32.9652753  56.1078903   4.9131673  34.2862753  56.3928903
   4.8021673  33.6512753  55.9468903   5.0321673  21.7962753  63.9848903
   5.8781673  21.6062753  64.0828903   4.6621673  21.0192753  63.8468903
   5.1021673  21.6532753  63.9788903  17.6491673  33.3802753  58.3118903
  18.3431673  32.9132753  58.0638903  17.1101673  32.7822753  58.6488903
  17.6721673  33.2222753  58.3248903  14.8881673  26.1562753  67.4908903
  14.8811673  25.3802753  67.8888903  14.0471673  26.3902753  67.4838903
  14.7631673  26.0762753  67.5488903   4.3781673  24.5682753  56.1258903
   3.7681673  24.1632753  56.5998903   3.9921673  24.6862753  55.3528903
   4.2311673  24.5252753  56.0818903  16.1441673  26.2272753  64.9278903
  15.8581673  26.6282753  65.6478903  17.0041673  26.1652753  65.0548903
  16.2291673  26.2772753  65.0528903   5.8331673  23.0292753  58.8358903
   6.1051673  23.8552753  58.9028903   4.9701673  23.1042753  58.7398903
   5.7461673  23.1622753  58.8308903  13.8061673  20.1512753  73.4678903
  13.2811673  20.6102753  73.9918903  13.4451673  19.3562753  73.4618903
  13.6751673  20.1012753  73.5438903  17.2751673  31.8602753  65.4568903
  17.5651673  32.1172753  64.6758903  17.9701673  31.9562753  65.9758903
  17.4211673  31.9122753  65.4178903  12.2981673  23.7202753  73.5438903
  12.3711673  23.8242753  74.4068903  11.6641673  24.2782753  73.3228903
  12.2151673  23.8182753  73.6388903  14.5661673  24.0392753  71.9088903
  14.8851673  24.8252753  72.1118903  14.1961673  23.7692753  72.6518903
  14.5591673  24.1152753  72.0488903  13.8801673  30.4632753  57.4388903
  14.2141673  29.6572753  57.4738903  13.1251673  30.3912753  57.8688903
  13.8181673  30.3332753  57.5078903  14.3621673  22.2972753  63.0978903
  13.6171673  21.9742753  63.4158903  14.3641673  23.1232753  63.3778903
  14.2521673  22.3712753  63.1858903  17.2641673  24.5812753  74.6438903
  17.2121673  24.2402753  73.8428903  18.0011673  25.0482753  74.6218903
  17.3651673  24.6002753  74.5218903  16.8021673  28.2572753  70.8498903
  17.4301673  27.7082753  70.5938903  16.7411673  28.8222753  70.1878903
  16.8861673  28.2602753  70.7138903  11.2541673  28.3382753  56.8418903
  11.9381673  27.8242753  56.6728903  10.8371673  28.3842753  56.0768903
  11.2931673  28.2692753  56.7038903   5.9361673  29.4882753  68.1458903
   5.6381673  30.0802753  68.7128903   5.9911673  29.9302753  67.3968903
   5.9001673  29.6412753  68.1188903   3.9151673  28.4382753  71.5438903
   3.1091673  28.1482753  71.7108903   3.8261673  29.3062753  71.5498903
   3.7831673  28.5232753  71.5688903  13.2741673  18.6272753  70.5588903
  14.0181673  19.0792753  70.4958903  12.7081673  19.0972753  70.0898903
  13.3011673  18.7642753  70.4808903   8.4521673  25.9112753  67.6368903
   8.9281673  26.2852753  68.2648903   7.6291673  26.0452753  67.8958903
   8.4011673  25.9862753  67.7678903   5.1621673  21.5142753  70.3778903
   5.3231673  20.7702753  70.8048903   5.1171673  21.2652753  69.5428903
   5.1791673  21.3672753  70.3178903   7.7161673  33.3042753  62.8648903
   8.2621673  33.9832753  62.9188903   7.3661673  33.3862753  62.0698903
   7.7451673  33.4172753  62.7548903  14.5591673  16.6072753  68.2288903
  14.2791673  17.4322753  68.1848903  15.2751673  16.6602753  68.7248903
  14.6241673  16.7372753  68.2958903   6.9141673  17.3222753  70.2578903
   7.6191673  17.6422753  69.8558903   7.1551673  16.5152753  70.4848903
   7.0531673  17.2502753  70.2318903   5.8991673  31.5322753  66.2538903
   5.2751673  32.1142753  66.0718903   6.1471673  31.2462753  65.4678903
   5.8431673  31.5762753  66.1108903  10.2081673  28.1662753  73.2428903
  10.9651673  28.4522753  72.9168903   9.6611673  28.2182753  72.5648903
  10.2391673  28.2162753  73.0938903  14.1171673  30.7162753  71.7468903
  14.4631673  30.9862753  72.5008903  14.4111673  31.2982753  71.1668903
  14.2121673  30.8422753  71.7728903  15.9801673  22.8622753  57.0858903
  16.3581673  23.5392753  56.6858903  15.1381673  23.0862753  57.1168903
  15.9111673  22.9952753  57.0308903   7.4931673  26.3082753  56.1688903
   6.6881673  26.1312753  55.8838903   7.4601673  27.1592753  56.3608903
   7.3691673  26.4072753  56.1558903   3.4231673  22.3752753  66.3188903
   3.8631673  22.2722753  65.5728903   3.9681673  22.0622753  66.9238903
   3.5681673  22.3142753  66.2978903  11.4391673  21.4772753  71.9108903
  10.7911673  21.9472753  72.2588903  12.0041673  21.3882753  72.5698903
  11.4271673  21.5332753  72.0598903  11.1271673  23.0142753  68.2088903
  11.4291673  23.4342753  68.9118903  11.1631673  22.1742753  68.4408903
  11.1771673  22.9522753  68.3468903   8.5521673  33.1812753  72.1338903
   9.0301673  32.5812753  71.7178903   8.2011673  32.7382753  72.7988903
   8.5711673  33.0272753  72.1708903  13.6751673  22.4612753  60.4608903
  13.8821673  22.2602753  61.2848903  14.4311673  22.7292753  60.1188903
  13.8171673  22.4712753  60.5318903   6.9701673  17.3602753  66.3658903
   6.1441673  17.2112753  66.6028903   6.9301673  17.3952753  65.4948903
   6.8421673  17.3432753  66.2718903  14.6971673  18.5442753  61.9348903
  13.9831673  18.0732753  62.1058903  14.5351673  18.8852753  61.1488903
  14.5681673  18.5252753  61.8438903  15.1401673  26.4882753  60.3148903
  15.6161673  25.7592753  60.2668903  14.3191673  26.2022753  60.2388903
  15.0891673  26.3382753  60.2958903   8.6111673  28.4002753  71.1538903
   7.8161673  28.3362753  71.5048903   8.6821673  29.2472753  70.9588903
   8.5041673  28.5152753  71.1768903   4.4411673  34.6072753  66.4708903
   4.4521673  34.6662753  67.3408903   4.0161673  33.8602753  66.3208903
   4.3801673  34.5052753  66.5768903   2.5991673  20.5022753  59.6258903
   2.7251673  20.1732753  58.8278903   1.7871673  20.2532753  59.8248903
   2.4981673  20.4172753  59.5378903  11.3561673  27.6552753  62.6698903
  11.4321673  27.9962753  63.4688903  11.5251673  26.8082753  62.7908903
  11.3921673  27.5802753  62.8058903   8.8781673  26.9292753  62.2348903
   8.5801673  26.6142753  62.9918903   9.5731673  27.4022753  62.4698903
   8.9371673  26.9522753  62.3818903   9.1001673  31.0472753  70.2618903
   9.7871673  30.9332753  70.7868903   9.2341673  31.8382753  69.9178903
   9.2211673  31.1472753  70.2888903  17.2761673  23.6562753  72.0728903
  16.4211673  23.5342753  72.1988903  17.4291673  23.2612753  71.3098903
  17.1721673  23.5792753  71.9788903  11.7891673  24.3212753  70.6488903
  11.5341673  23.6022753  71.0708903  12.6101673  24.4372753  70.9188903
  11.8731673  24.2322753  70.7508903   9.7231673  25.5112753  73.8358903
  10.0461673  26.1972753  73.4038903   9.0191673  25.8342753  74.2378903
   9.6661673  25.6602753  73.8308903  12.8071673  33.8852753  64.7648903
  12.3561673  34.5282753  65.1438903  13.5151673  33.8062753  65.2698903
  12.8451673  33.9682753  64.8958903   9.5081673  28.9752753  67.6948903
   8.8141673  29.3772753  68.0378903  10.1851673  29.4082753  68.0338903
   9.5051673  29.0982753  67.7958903  14.8851673  31.5682753  74.2748903
  15.6611673  31.1782753  74.3578903  14.4161673  31.2322753  74.9298903
  14.9301673  31.4612753  74.3838903   2.5761673  22.5132753  70.0418903
   2.9511673  23.1322753  69.5548903   3.2501673  22.0392753  70.3268903
   2.7311673  22.5352753  70.0118903  15.9101673  23.6012753  59.7568903
  16.0131673  23.5432753  58.8928903  16.6511673  23.2692753  60.0748903
  16.0351673  23.5442753  59.6758903   2.9051673  18.3712753  71.7278903
   2.8241673  17.5272753  71.9338903   2.5911673  18.4152753  70.9148903
   2.8471673  18.2532753  71.6378903   9.8301673  30.5662753  60.8638903
   9.6251673  31.3992753  60.7048903   9.0551673  30.1842753  60.9858903
   9.6851673  30.6332753  60.8588903  15.0121673  23.7472753  69.1128903
  15.0101673  22.8842753  69.2368903  15.0791673  24.0712753  69.9198903
  15.0221673  23.6672753  69.2498903  10.8911673  18.5472753  72.8948903
  10.9831673  19.2592753  73.3888903  10.2541673  18.1022753  73.2918903
  10.8101673  18.5862753  73.0268903   9.8851673  18.7372753  63.7488903
   9.1851673  19.2552753  63.6928903   9.9231673  18.3572753  62.9648903
   9.7871673  18.7582753  63.6248903   5.1921673  30.8282753  57.2728903
   5.6331673  30.9082753  58.0208903   4.3871673  30.6122753  57.5308903
   5.1381673  30.8082753  57.4218903  13.4831673  19.2532753  66.5488903
  14.3381673  19.3522753  66.6938903  13.1141673  19.8062753  67.1138903
  13.5551673  19.3502753  66.6538903   4.5111673  25.4792753  70.9258903
   4.1151673  26.2532753  71.0008903   4.1051673  25.1062753  70.2498903
   4.3931673  25.5382753  70.8368903  13.7871673  24.5332753  65.0398903
  14.4531673  25.0742753  65.1998903  13.4421673  24.8442753  64.3008903
  13.8341673  24.6592753  64.9548903  14.1001673  32.5992753  60.8468903
  13.9261673  31.9452753  61.3968903  14.8131673  32.3282753  60.4238903
  14.1801673  32.4622753  60.8658903   2.5211673  29.8982753  57.8738903
   2.2771673  29.5912753  58.6538903   2.4881673  29.1952753  57.3578903
   2.4801673  29.7492753  57.9128903   5.3401673  28.1432753  56.6168903
   4.5221673  27.8752753  56.7568903   5.3121673  28.9952753  56.8018903
   5.2151673  28.2302753  56.6648903   4.9401673  18.4562753  68.3758903
   4.0761673  18.5402753  68.4558903   5.1601673  17.9422753  69.0448903
   4.8451673  18.3932753  68.4868903  16.9581673  17.0912753  69.7048903
  16.9061673  17.0472753  70.5748903  17.6451673  16.5882753  69.5148903
  17.0521673  17.0112753  69.8048903   9.0431673  19.2042753  66.7498903
   8.3061673  18.7502753  66.8628903   9.6141673  18.8022753  67.2728903
   9.0181673  19.0772753  66.8438903  11.7751673  30.0522753  68.5378903
  11.9811673  30.3532753  69.3298903  11.7141673  30.7742753  68.0528903
  11.7961673  30.2032753  68.5828903  11.3091673  34.2662753  72.7838903
  10.5561673  34.2482753  72.3428903  11.4771673  35.1182753  72.8678903
  11.2231673  34.3892753  72.7308903   6.5461673  23.5332753  71.9538903
   6.2241673  22.9572753  71.3838903   6.1871673  24.2882753  71.7078903
   6.4461673  23.5592753  71.8338903   7.3421673  16.7852753  56.5808903
   7.4201673  17.0322753  55.7478903   6.5991673  17.1622753  56.8388903
   7.2441673  16.8772753  56.4958903  16.5871673  28.6912753  67.9958903
  16.5551673  27.8292753  67.8608903  15.8941673  28.9932753  67.5618903
  16.4801673  28.6082753  67.9118903   4.9811673  33.8892753  72.2018903
   5.0221673  34.0152753  73.0648903   5.6321673  33.3292753  72.0458903
   5.0831673  33.8252753  72.3068903  14.6921673  31.9512753  66.7928903
  15.2191673  31.8682753  66.1018903  14.3011673  31.1732753  66.8468903
  14.7121673  31.8242753  66.6988903  11.2061673  17.3952753  66.0008903
  11.8761673  17.9392753  66.1278903  10.7031673  17.8192753  65.4278903
  11.2311673  17.5382753  65.9348903   2.5741673  32.2722753  73.5618903
   3.1691673  32.7032753  74.0338903   2.2101673  32.8962753  73.0728903
   2.6081673  32.4282753  73.5588903  10.5651673  23.2032753  63.4938903
  11.1161673  22.5962753  63.7938903  10.1401673  23.4662753  64.2088903
  10.5841673  23.1522753  63.6428903  12.5351673  25.0342753  60.0558903
  12.6031673  24.1842753  60.2368903  11.7121673  25.1202753  59.7778903
  12.4231673  24.9212753  60.0418903   2.2871673  33.5282753  59.2658903
   2.1421673  33.6842753  58.4198903   3.1531673  33.6072753  59.3438903
   2.3941673  33.5632753  59.1528903   6.4541673  25.9252753  58.9938903
   6.5541673  26.0642753  58.1388903   7.2721673  25.8652753  59.2898903
   6.5891673  25.9362753  58.9108903  15.6141673  33.9892753  56.4738903
  16.2511673  33.8552753  57.0548903  15.2731673  33.1952753  56.3568903
  15.6581673  33.8522753  56.5418903  15.8091673  26.4072753  73.2068903
  16.4431673  26.2372753  73.7808903  16.2261673  26.8102753  72.5548903
  15.9641673  26.4422753  73.1958903  11.6891673  30.2542753  58.7958903
  11.4381673  30.1262753  59.6218903  11.3721673  29.5592753  58.3748903
  11.6051673  30.1332753  58.8558903  16.4341673  20.9712753  73.9448903
  16.2381673  21.6152753  74.4998903  15.7121673  20.4812753  73.9368903
  16.2991673  20.9942753  74.0258903  16.3331673  21.9122753  66.9158903
  15.5001673  22.1622753  66.8438903  16.2771673  21.0722753  67.1448903
  16.2021673  21.8252753  66.9388903   5.5931673  18.9002753  72.1098903
   5.8271673  18.3242753  71.4968903   4.7511673  18.7192753  72.2508903
   5.5031673  18.7882753  72.0398903  13.2201673  26.5182753  74.5618903
  14.0911673  26.4822753  74.5258903  13.0011673  26.9382753  73.8298903
  13.3171673  26.5742753  74.4488903   2.9741673  32.3432753  65.7428903
   2.8951673  31.5332753  65.4268903   2.5301673  32.8302753  65.1708903
   2.8971673  32.2952753  65.6118903   8.5751673  28.4622753  58.2258903
   9.2921673  28.1152753  57.8698903   8.5411673  29.2622753  57.8778903
   8.6761673  28.5292753  58.1218903   9.9841673  17.1032753  42.4646493
   9.7391673  17.5912753  41.7846493  10.8471673  17.0302753  42.3646493
  10.0751673  17.1642753  42.3496493   9.7931673  24.0192753  47.1356493
   9.2691673  24.6152753  47.4986493  10.1901673  23.6512753  47.8196493
   9.7741673  24.0532753  47.2906493  15.9371673  31.4602753  40.1066493
  16.6381673  30.9412753  40.1026493  15.3501673  31.0152753  39.6376493
  15.9541673  31.3172753  40.0366493   2.5441673  27.2142753  37.7706493
   2.1521673  26.8432753  37.0846493   2.4641673  26.6162753  38.3996493
   2.4741673  27.0712753  37.7616493  12.4641673  25.0862753  43.8116493
  12.5441673  25.0902753  42.9426493  11.8801673  24.4542753  43.9606493
  12.3891673  24.9932753  43.7056493   6.4531673  18.1902753  41.6196493
   6.3831673  18.8672753  41.0736493   7.1941673  17.8022753  41.3706493
   6.5521673  18.2332753  41.5016493   6.1761673  28.4192753  53.9136493
   5.9401673  28.4162753  54.7536493   5.4281673  28.2712753  53.4896493
   6.0301673  28.3962753  53.9746493   5.5561673  21.0252753  48.3956493
   6.2341673  21.0432753  47.8466493   5.5111673  20.1892753  48.6406493
   5.6491673  20.9042753  48.3506493   6.1581673  31.6112753  51.1766493
   6.2961673  32.3712753  50.7696493   6.9491673  31.2462753  51.2036493
   6.2951673  31.6702753  51.1206493   3.0491673  23.5152753  43.0716493
   3.8661673  23.3282753  43.3146493   2.5721673  22.9012753  43.4676493
   3.0991673  23.3972753  43.1666493   7.2531673  29.4962753  45.6816493
   7.6011673  28.6972753  45.7116493   7.9181673  30.0002753  45.4266493
   7.4031673  29.4522753  45.6486493   7.3101673  28.9452753  41.8926493
   7.6411673  28.3012753  42.3786493   7.5501673  28.7342753  41.0816493
   7.3941673  28.8192753  41.8446493   9.2781673  23.0762753  53.2316493
   8.4301673  22.9772753  53.0536493   9.3071673  23.8212753  53.6856493
   9.1571673  23.1722753  53.2726493   3.6461673  18.6092753  42.3376493
   3.3501673  19.1102753  41.6876493   4.5131673  18.6872753  42.2806493
   3.7301673  18.6952753  42.2336493  13.8361673  16.0362753  52.3456493
  13.6781673  16.8052753  51.9636493  13.0641673  15.8162753  52.6896493
  13.6981673  16.1172753  52.3406493   6.6251673  17.7512753  44.5606493
   6.6981673  18.6112753  44.6896493   6.5871673  17.6762753  43.6926493
   6.6301673  17.8672753  44.4516493  11.2981673  20.6772753  36.8596493
  10.8481673  21.3582753  37.1666493  11.4121673  20.1732753  37.5626493
  11.2491673  20.7032753  37.0086493   5.2541673  30.7302753  41.4416493
   4.6751673  30.4552753  42.0336493   5.8781673  30.1212753  41.4666493
   5.2611673  30.6002753  41.5326493  11.3971673  33.0182753  38.9636493
  12.1241673  33.4902753  39.0656493  11.6261673  32.2242753  39.2436493
  11.5391673  32.9712753  39.0206493   9.5651673  33.4102753  40.9536493
   9.7791673  33.9372753  41.6156493  10.3321673  33.2362753  40.5746493
   9.7101673  33.4622753  40.9956493   2.5331673  17.9932753  46.5526493
   2.0121673  17.3652753  46.2446493   3.1241673  17.5562753  47.0236493
   2.5441673  17.8352753  46.5766493   5.8391673  20.1262753  55.8506493
   5.9561673  19.6722753  55.1146493   6.1271673  20.9242753  55.6476493
   5.8991673  20.1772753  55.7116493  16.6921673  20.6502753  43.1546493
  16.3461673  21.3282753  43.5806493  16.0561673  20.0522753  43.1706493
  16.5471673  20.6622753  43.2196493  12.0041673  33.4202753  49.2586493
  12.7481673  33.8762753  49.2486493  11.8831673  33.2062753  48.4216493
  12.0961673  33.4562753  49.1336493   1.7771673  30.0432753  45.3926493
   2.2001673  29.6872753  44.7186493   2.1011673  29.6212753  46.0846493
   1.8871673  29.9282753  45.3956493   5.0081673  32.8952753  44.6886493
   5.8521673  32.9992753  44.4936493   4.7111673  33.7132753  44.7566493
   5.0891673  33.0312753  44.6696493   8.2211673  17.3662753  54.0026493
   8.3991673  16.5572753  53.7276493   8.0781673  17.8072753  53.2636493
   8.2261673  17.3122753  53.8526493   8.8151673  22.2922753  42.7756493
   9.1021673  22.0602753  41.9856493   9.5471673  22.3712753  43.2446493
   8.9651673  22.2692753  42.7286493   9.5371673  22.6312753  37.8966493
   9.8181673  23.4192753  38.1456493   8.7611673  22.7962753  37.5336493
   9.4641673  22.7722753  37.8796493  13.5781673  34.6052753  39.3636493
  14.2431673  34.4572753  38.8186493  13.9381673  34.5222753  40.1536493
  13.7301673  34.5712753  39.3996493   4.0061673  34.1142753  50.4286493
   4.2981673  34.0472753  51.2486493   3.3801673  33.5092753  50.3836493
   3.9571673  34.0152753  50.5436493  16.3671673  18.9732753  48.5236493
  17.1241673  19.0452753  48.0956493  16.4301673  18.2002753  48.9226493
  16.4881673  18.8702753  48.5186493  11.2581673  30.6052753  52.9626493
  11.2241673  30.9872753  53.7466493  12.1121673  30.5632753  52.7916493
  11.3791673  30.6552753  53.0536493   8.3961673  30.8022753  37.7126493
   8.2151673  31.3472753  38.3696493   9.1621673  31.0922753  37.4116493
   8.4821673  30.9262753  37.7656493  11.9031673  18.6982753  38.7666493
  12.4431673  18.0162753  38.8426493  11.9651673  19.0962753  39.5406493
  11.9921673  18.6562753  38.8926493   9.1611673  21.0742753  40.0806493
   8.6531673  20.4122753  39.8266493   9.2131673  21.5782753  39.3706493
   9.0941673  21.0512753  39.9386493   9.7101673  33.7692753  50.4606493
  10.4781673  33.6892753  50.0546493   9.1271673  33.6482753  49.8226493
   9.7371673  33.7392753  50.3066493   9.1611673  18.0152753  39.9716493
   8.7061673  17.6132753  39.3456493   9.9341673  18.1702753  39.5966493
   9.2081673  17.9792753  39.8236493  15.9871673  34.3722753  43.3616493
  15.5321673  35.0892753  43.5626493  15.3731673  33.8012753  43.1196493
  15.8291673  34.3942753  43.3556493   7.7591673  20.3822753  44.4936493
   7.8331673  20.9502753  43.8356493   7.8801673  20.8742753  45.2036493
   7.7871673  20.5392753  44.5016493  12.9841673  30.2172753  42.9056493
  13.6851673  29.7352753  43.0946493  12.3241673  29.6482753  42.9506493
  12.9901673  30.0622753  42.9396493   3.3601673  31.1272753  52.1176493
   4.2011673  31.1902753  51.8956493   3.3231673  31.5242753  52.8936493
   3.4791673  31.1952753  52.1996493   2.3671673  16.2052753  42.8416493
   2.9031673  16.8932753  42.8316493   2.3701673  15.9312753  42.0136493
   2.4461673  16.2662753  42.7176493   5.3231673  26.6382753  46.8666493
   5.4951673  26.4282753  47.6956493   4.6681673  26.1042753  46.6506493
   5.2521673  26.5282753  46.9576493  11.5511673  20.5522753  50.3816493
  11.4561673  20.8712753  51.1876493  10.9581673  19.9132753  50.3436493
  11.4491673  20.5042753  50.4956493   6.0731673  26.5762753  49.4566493
   6.1261673  27.4232753  49.6586493   5.7881673  26.2062753  50.1936493
   6.0391673  26.6462753  49.5946493  12.2501673  27.2712753  48.5866493
  11.7361673  26.8592753  49.1576493  12.1241673  28.1152753  48.7676493
  12.1561673  27.3352753  48.6976493  12.8071673  16.4962753  43.2176493
  12.8561673  16.1782753  44.0286493  13.1301673  15.8522753  42.7246493
  12.8621673  16.3542753  43.2646493  15.2711673  20.7322753  51.5256493
  16.0431673  20.5072753  51.8626493  14.7961673  20.9492753  52.2256493
  15.3151673  20.7312753  51.6786493   2.8151673  20.0152753  44.4956493
   3.0871673  19.5852753  43.7876493   2.6391673  19.3792753  45.0666493
   2.8291673  19.8582753  44.4756493  15.5031673  27.7102753  38.7136493
  15.6221673  27.4232753  39.5286493  16.3101673  27.7312753  38.3836493
  15.6391673  27.6712753  38.7856493   2.6391673  27.4422753  44.0446493
   3.4901673  27.3622753  43.8716493   2.2821673  26.7602753  43.6326493
   2.7121673  27.3292753  43.9576493  17.7371673  32.2192753  52.9676493
  17.0551673  32.5292753  52.5206493  17.3681673  31.7612753  53.6126493
  17.5811673  32.1972753  52.9966493  13.3981673  24.2472753  38.2986493
  13.1781673  24.9782753  37.8766493  12.9501673  24.2982753  39.0456493
  13.2991673  24.3622753  38.3466493   5.0071673  27.4492753  42.2796493
   5.7201673  27.9442753  42.3696493   5.2291673  26.8822753  41.6536493
   5.1451673  27.4382753  42.2006493  17.5851673  19.1082753  37.7516493
  16.9231673  18.5402753  37.7746493  17.3921673  19.6202753  37.0716493
  17.4591673  19.1002753  37.6546493   6.8101673  22.8022753  55.6956493
   6.3261673  23.3792753  56.1376493   6.7821673  23.0972753  54.8746493
   6.7341673  22.9312753  55.6396493  17.9081673  23.4862753  50.3076493
  18.1231673  22.6862753  50.0316493  17.0581673  23.5462753  50.1186493
  17.8141673  23.3772753  50.2386493  15.5871673  18.6662753  40.0306493
  16.3331673  18.2592753  40.2296493  15.8501673  19.3812753  39.6056493
  15.7361673  18.7122753  39.9976493   9.5301673  31.1522753  44.6066493
   9.0071673  31.7862753  44.3136493   9.8401673  30.7882753  43.8776493
   9.4981673  31.1922753  44.4556493   3.6051673  28.9402753  47.3666493
   4.0721673  29.2292753  48.0446493   4.1771673  28.4622753  46.9126493
   3.7591673  28.9122753  47.3996493  12.0411673  20.9542753  45.1036493
  12.3851673  21.1062753  45.8906493  11.5881673  20.2162753  45.2166493
  12.0251673  20.8672753  45.2366493   6.5171673  20.1742753  39.5606493
   6.5151673  20.0572753  38.6956493   6.3361673  21.0222753  39.6526493
   6.4901673  20.2822753  39.4466493  15.5711673  32.6012753  51.0576493
  14.9001673  33.1152753  51.2756493  15.6341673  32.7012753  50.1936493
  15.4811673  32.6922753  50.9626493   4.2551673  30.1262753  44.1926493
   4.3811673  30.9692753  44.3796493   4.9231673  29.7272753  44.5886493
   4.3731673  30.1922753  44.2786493   2.3851673  23.6092753  54.0546493
   1.8491673  23.1032753  54.5226493   2.4051673  23.2192753  53.2746493
   2.3081673  23.4762753  54.0086493   2.8701673  23.0062753  39.1946493
   2.7421673  22.5582753  39.9326493   2.2881673  22.6642753  38.6426493
   2.7651673  22.8892753  39.2226493   3.0371673  24.8362753  45.7936493
   2.2561673  24.7772753  45.4106493   3.1091673  24.0842753  46.2306493
   2.9321673  24.7172753  45.8016493   3.4671673  24.5732753  49.2616493
   3.4921673  23.8982753  48.7106493   2.8211673  25.0692753  48.9496493
   3.3761673  24.5462753  49.1346493  13.3621673  22.2862753  47.6576493
  12.7001673  22.6142753  48.1206493  13.5491673  22.9202753  47.0886493
  13.2921673  22.4282753  47.6416493   7.5671673  33.3502753  48.6536493
   7.2901673  32.7092753  48.1306493   7.3591673  34.0762753  48.2156493
   7.4961673  33.3632753  48.5116493  10.0071673  18.1922753  51.0866493
  10.1561673  17.3672753  50.8436493  10.3861673  18.2472753  51.8706493
  10.0851673  18.0782753  51.1666493  11.5551673  20.2552753  41.1686493
  12.0451673  20.9722753  41.0916493  10.7651673  20.5162753  40.9056493
  11.5111673  20.3992753  41.1186493  12.8691673  28.1332753  53.0786493
  13.3531673  28.8512753  53.1766493  13.2631673  27.7062753  52.4276493
  12.9991673  28.1762753  52.9966493   7.1651673  30.9782753  54.2556493
   7.5191673  30.8002753  55.0326493   6.7291673  30.2492753  54.0566493
   7.1531673  30.8442753  54.3416493   8.1371673  21.7252753  46.8936493
   8.6171673  22.4242753  47.1016493   8.5101673  21.0782753  47.3446493
   8.2631673  21.7332753  46.9906493  10.3261673  24.8942753  39.1676493
  10.3181673  25.6162753  38.6776493   9.6871673  25.0292753  39.7446493
  10.2311673  25.0212753  39.1806493  15.2981673  28.7642753  43.1486493
  15.6541673  28.4142753  43.8636493  15.2901673  28.1032753  42.5786493
  15.3501673  28.6142753  43.1696493  11.3431673  31.8302753  46.9926493
  10.7401673  31.5342753  46.4356493  11.8881673  32.2822753  46.4836493
  11.3341673  31.8532753  46.8346493  11.3561673  28.6812753  46.3926493
  10.5591673  28.9052753  46.6666493  11.6141673  28.0872753  46.9776493
  11.2761673  28.6262753  46.5196493   5.2481673  33.4932753  40.8406493
   5.1011673  32.7172753  41.2116493   5.9371673  33.3462753  40.3256493
   5.3281673  33.3562753  40.8196493   4.9191673  17.2362753  38.8286493
   5.0161673  17.1292753  39.6896493   4.2111673  17.7422753  38.7636493
   4.8291673  17.2952753  38.9466493   7.5401673  33.0092753  39.2426493
   8.1621673  33.1722753  39.8326493   7.5761673  33.7002753  38.7106493
   7.6371673  33.1352753  39.2516493  14.6161673  26.6792753  51.2386493
  14.6711673  26.8042753  50.3766493  15.3691673  26.9992753  51.5406493
  14.7351673  26.7442753  51.1556493  10.8071673  32.0282753  55.5156493
  10.9711673  32.3112753  56.3246493  11.0701673  32.6892753  55.0106493
  10.8701673  32.1682753  55.5606493  15.6481673  16.9772753  54.2256493
  15.0111673  16.5772753  53.7836493  15.6741673  16.5462753  54.9836493
  15.5581673  16.8552753  54.2716493   2.0411673  25.5432753  40.0716493
   2.3651673  24.7642753  39.8496493   2.6871673  25.9112753  40.5266493
   2.1841673  25.4822753  40.1056493  10.3471673  26.4852753  50.8386493
  10.1921673  27.0952753  51.4426493  10.8811673  25.9272753  51.2446493
  10.4031673  26.4932753  50.9876493   8.7311673  24.8852753  41.4966493
   8.7901673  25.5352753  42.0756493   8.5421673  24.1892753  41.9876493
   8.7121673  24.8782753  41.6546493  13.9571673  29.2142753  47.3656493
  13.4781673  29.5122753  46.6996493  13.6011673  28.4382753  47.5436493
  13.8341673  29.1432753  47.2936493   3.2271673  19.4022753  38.0086493
   2.7161673  19.4552753  37.3026493   4.0111673  19.6422753  37.7126493
   3.2671673  19.4452753  37.8606493   7.9541673  26.9322753  45.9276493
   7.1071673  26.7382753  46.0086493   8.2781673  26.7672753  46.7206493
   7.8761673  26.8792753  46.0566493   4.7061673  33.6622753  36.8136493
   5.1451673  32.9652753  37.1016493   4.9131673  34.2862753  37.3866493
   4.8021673  33.6512753  36.9406493   5.0321673  21.7962753  44.9786493
   5.8781673  21.6062753  45.0766493   4.6621673  21.0192753  44.8406493
   5.1021673  21.6532753  44.9726493  17.6491673  33.3802753  39.3056493
  18.3431673  32.9132753  39.0576493  17.1101673  32.7822753  39.6426493
  17.6721673  33.2222753  39.3186493  14.8881673  26.1562753  48.4846493
  14.8811673  25.3802753  48.8826493  14.0471673  26.3902753  48.4776493
  14.7631673  26.0762753  48.5426493   4.3781673  24.5682753  37.1196493
   3.7681673  24.1632753  37.5936493   3.9921673  24.6862753  36.3466493
   4.2311673  24.5252753  37.0756493  16.1441673  26.2272753  45.9216493
  15.8581673  26.6282753  46.6416493  17.0041673  26.1652753  46.0486493
  16.2291673  26.2772753  46.0466493   5.8331673  23.0292753  39.8296493
   6.1051673  23.8552753  39.8966493   4.9701673  23.1042753  39.7336493
   5.7461673  23.1622753  39.8246493  13.8061673  20.1512753  54.4616493
  13.2811673  20.6102753  54.9856493  13.4451673  19.3562753  54.4556493
  13.6751673  20.1012753  54.5376493  17.2751673  31.8602753  46.4506493
  17.5651673  32.1172753  45.6696493  17.9701673  31.9562753  46.9696493
  17.4211673  31.9122753  46.4116493  12.2981673  23.7202753  54.5376493
  12.3711673  23.8242753  55.4006493  11.6641673  24.2782753  54.3166493
  12.2151673  23.8182753  54.6326493  14.5661673  24.0392753  52.9026493
  14.8851673  24.8252753  53.1056493  14.1961673  23.7692753  53.6456493
  14.5591673  24.1152753  53.0426493  13.8801673  30.4632753  38.4326493
  14.2141673  29.6572753  38.4676493  13.1251673  30.3912753  38.8626493
  13.8181673  30.3332753  38.5016493  14.3621673  22.2972753  44.0916493
  13.6171673  21.9742753  44.4096493  14.3641673  23.1232753  44.3716493
  14.2521673  22.3712753  44.1796493  17.2641673  24.5812753  55.6376493
  17.2121673  24.2402753  54.8366493  18.0011673  25.0482753  55.6156493
  17.3651673  24.6002753  55.5156493  16.8021673  28.2572753  51.8436493
  17.4301673  27.7082753  51.5876493  16.7411673  28.8222753  51.1816493
  16.8861673  28.2602753  51.7076493  11.2541673  28.3382753  37.8356493
  11.9381673  27.8242753  37.6666493  10.8371673  28.3842753  37.0706493
  11.2931673  28.2692753  37.6976493   5.9361673  29.4882753  49.1396493
   5.6381673  30.0802753  49.7066493   5.9911673  29.9302753  48.3906493
   5.9001673  29.6412753  49.1126493   3.9151673  28.4382753  52.5376493
   3.1091673  28.1482753  52.7046493   3.8261673  29.3062753  52.5436493
   3.7831673  28.5232753  52.5626493  13.2741673  18.6272753  51.5526493
  14.0181673  19.0792753  51.4896493  12.7081673  19.0972753  51.0836493
  13.3011673  18.7642753  51.4746493   8.4521673  25.9112753  48.6306493
   8.9281673  26.2852753  49.2586493   7.6291673  26.0452753  48.8896493
   8.4011673  25.9862753  48.7616493   5.1621673  21.5142753  51.3716493
   5.3231673  20.7702753  51.7986493   5.1171673  21.2652753  50.5366493
   5.1791673  21.3672753  51.3116493   7.7161673  33.3042753  43.8586493
   8.2621673  33.9832753  43.9126493   7.3661673  33.3862753  43.0636493
   7.7451673  33.4172753  43.7486493  14.5591673  16.6072753  49.2226493
  14.2791673  17.4322753  49.1786493  15.2751673  16.6602753  49.7186493
  14.6241673  16.7372753  49.2896493   6.9141673  17.3222753  51.2516493
   7.6191673  17.6422753  50.8496493   7.1551673  16.5152753  51.4786493
   7.0531673  17.2502753  51.2256493   5.8991673  31.5322753  47.2476493
   5.2751673  32.1142753  47.0656493   6.1471673  31.2462753  46.4616493
   5.8431673  31.5762753  47.1046493  10.2081673  28.1662753  54.2366493
  10.9651673  28.4522753  53.9106493   9.6611673  28.2182753  53.5586493
  10.2391673  28.2162753  54.0876493  14.1171673  30.7162753  52.7406493
  14.4631673  30.9862753  53.4946493  14.4111673  31.2982753  52.1606493
  14.2121673  30.8422753  52.7666493  15.9801673  22.8622753  38.0796493
  16.3581673  23.5392753  37.6796493  15.1381673  23.0862753  38.1106493
  15.9111673  22.9952753  38.0246493   7.4931673  26.3082753  37.1626493
   6.6881673  26.1312753  36.8776493   7.4601673  27.1592753  37.3546493
   7.3691673  26.4072753  37.1496493   3.4231673  22.3752753  47.3126493
   3.8631673  22.2722753  46.5666493   3.9681673  22.0622753  47.9176493
   3.5681673  22.3142753  47.2916493  11.4391673  21.4772753  52.9046493
  10.7911673  21.9472753  53.2526493  12.0041673  21.3882753  53.5636493
  11.4271673  21.5332753  53.0536493  11.1271673  23.0142753  49.2026493
  11.4291673  23.4342753  49.9056493  11.1631673  22.1742753  49.4346493
  11.1771673  22.9522753  49.3406493   8.5521673  33.1812753  53.1276493
   9.0301673  32.5812753  52.7116493   8.2011673  32.7382753  53.7926493
   8.5711673  33.0272753  53.1646493  13.6751673  22.4612753  41.4546493
  13.8821673  22.2602753  42.2786493  14.4311673  22.7292753  41.1126493
  13.8171673  22.4712753  41.5256493   6.9701673  17.3602753  47.3596493
   6.1441673  17.2112753  47.5966493   6.9301673  17.3952753  46.4886493
   6.8421673  17.3432753  47.2656493  14.6971673  18.5442753  42.9286493
  13.9831673  18.0732753  43.0996493  14.5351673  18.8852753  42.1426493
  14.5681673  18.5252753  42.8376493  15.1401673  26.4882753  41.3086493
  15.6161673  25.7592753  41.2606493  14.3191673  26.2022753  41.2326493
  15.0891673  26.3382753  41.2896493   8.6111673  28.4002753  52.1476493
   7.8161673  28.3362753  52.4986493   8.6821673  29.2472753  51.9526493
   8.5041673  28.5152753  52.1706493   4.4411673  34.6072753  47.4646493
   4.4521673  34.6662753  48.3346493   4.0161673  33.8602753  47.3146493
   4.3801673  34.5052753  47.5706493   2.5991673  20.5022753  40.6196493
   2.7251673  20.1732753  39.8216493   1.7871673  20.2532753  40.8186493
   2.4981673  20.4172753  40.5316493  11.3561673  27.6552753  43.6636493
  11.4321673  27.9962753  44.4626493  11.5251673  26.8082753  43.7846493
  11.3921673  27.5802753  43.7996493   8.8781673  26.9292753  43.2286493
   8.5801673  26.6142753  43.9856493   9.5731673  27.4022753  43.4636493
   8.9371673  26.9522753  43.3756493   9.1001673  31.0472753  51.2556493
   9.7871673  30.9332753  51.7806493   9.2341673  31.8382753  50.9116493
   9.2211673  31.1472753  51.2826493  17.2761673  23.6562753  53.0666493
  16.4211673  23.5342753  53.1926493  17.4291673  23.2612753  52.3036493
  17.1721673  23.5792753  52.9726493  11.7891673  24.3212753  51.6426493
  11.5341673  23.6022753  52.0646493  12.6101673  24.4372753  51.9126493
  11.8731673  24.2322753  51.7446493   9.7231673  25.5112753  54.8296493
  10.0461673  26.1972753  54.3976493   9.0191673  25.8342753  55.2316493
   9.6661673  25.6602753  54.8246493  12.8071673  33.8852753  45.7586493
  12.3561673  34.5282753  46.1376493  13.5151673  33.8062753  46.2636493
  12.8451673  33.9682753  45.8896493   9.5081673  28.9752753  48.6886493
   8.8141673  29.3772753  49.0316493  10.1851673  29.4082753  49.0276493
   9.5051673  29.0982753  48.7896493  14.8851673  31.5682753  55.2686493
  15.6611673  31.1782753  55.3516493  14.4161673  31.2322753  55.9236493
  14.9301673  31.4612753  55.3776493   2.5761673  22.5132753  51.0356493
   2.9511673  23.1322753  50.5486493   3.2501673  22.0392753  51.3206493
   2.7311673  22.5352753  51.0056493  15.9101673  23.6012753  40.7506493
  16.0131673  23.5432753  39.8866493  16.6511673  23.2692753  41.0686493
  16.0351673  23.5442753  40.6696493   2.9051673  18.3712753  52.7216493
   2.8241673  17.5272753  52.9276493   2.5911673  18.4152753  51.9086493
   2.8471673  18.2532753  52.6316493   9.8301673  30.5662753  41.8576493
   9.6251673  31.3992753  41.6986493   9.0551673  30.1842753  41.9796493
   9.6851673  30.6332753  41.8526493  15.0121673  23.7472753  50.1066493
  15.0101673  22.8842753  50.2306493  15.0791673  24.0712753  50.9136493
  15.0221673  23.6672753  50.2436493  10.8911673  18.5472753  53.8886493
  10.9831673  19.2592753  54.3826493  10.2541673  18.1022753  54.2856493
  10.8101673  18.5862753  54.0206493   9.8851673  18.7372753  44.7426493
   9.1851673  19.2552753  44.6866493   9.9231673  18.3572753  43.9586493
   9.7871673  18.7582753  44.6186493   5.1921673  30.8282753  38.2666493
   5.6331673  30.9082753  39.0146493   4.3871673  30.6122753  38.5246493
   5.1381673  30.8082753  38.4156493  13.4831673  19.2532753  47.5426493
  14.3381673  19.3522753  47.6876493  13.1141673  19.8062753  48.1076493
  13.5551673  19.3502753  47.6476493   4.5111673  25.4792753  51.9196493
   4.1151673  26.2532753  51.9946493   4.1051673  25.1062753  51.2436493
   4.3931673  25.5382753  51.8306493  13.7871673  24.5332753  46.0336493
  14.4531673  25.0742753  46.1936493  13.4421673  24.8442753  45.2946493
  13.8341673  24.6592753  45.9486493  14.1001673  32.5992753  41.8406493
  13.9261673  31.9452753  42.3906493  14.8131673  32.3282753  41.4176493
  14.1801673  32.4622753  41.8596493   2.5211673  29.8982753  38.8676493
   2.2771673  29.5912753  39.6476493   2.4881673  29.1952753  38.3516493
   2.4801673  29.7492753  38.9066493   5.3401673  28.1432753  37.6106493
   4.5221673  27.8752753  37.7506493   5.3121673  28.9952753  37.7956493
   5.2151673  28.2302753  37.6586493   4.9401673  18.4562753  49.3696493
   4.0761673  18.5402753  49.4496493   5.1601673  17.9422753  50.0386493
   4.8451673  18.3932753  49.4806493  16.9581673  17.0912753  50.6986493
  16.9061673  17.0472753  51.5686493  17.6451673  16.5882753  50.5086493
  17.0521673  17.0112753  50.7986493   9.0431673  19.2042753  47.7436493
   8.3061673  18.7502753  47.8566493   9.6141673  18.8022753  48.2666493
   9.0181673  19.0772753  47.8376493  11.7751673  30.0522753  49.5316493
  11.9811673  30.3532753  50.3236493  11.7141673  30.7742753  49.0466493
  11.7961673  30.2032753  49.5766493  11.3091673  34.2662753  53.7776493
  10.5561673  34.2482753  53.3366493  11.4771673  35.1182753  53.8616493
  11.2231673  34.3892753  53.7246493   6.5461673  23.5332753  52.9476493
   6.2241673  22.9572753  52.3776493   6.1871673  24.2882753  52.7016493
   6.4461673  23.5592753  52.8276493   7.3421673  16.7852753  37.5746493
   7.4201673  17.0322753  36.7416493   6.5991673  17.1622753  37.8326493
   7.2441673  16.8772753  37.4896493  16.5871673  28.6912753  48.9896493
  16.5551673  27.8292753  48.8546493  15.8941673  28.9932753  48.5556493
  16.4801673  28.6082753  48.9056493   4.9811673  33.8892753  53.1956493
   5.0221673  34.0152753  54.0586493   5.6321673  33.3292753  53.0396493
   5.0831673  33.8252753  53.3006493  14.6921673  31.9512753  47.7866493
  15.2191673  31.8682753  47.0956493  14.3011673  31.1732753  47.8406493
  14.7121673  31.8242753  47.6926493  11.2061673  17.3952753  46.9946493
  11.8761673  17.9392753  47.1216493  10.7031673  17.8192753  46.4216493
  11.2311673  17.5382753  46.9286493   2.5741673  32.2722753  54.5556493
   3.1691673  32.7032753  55.0276493   2.2101673  32.8962753  54.0666493
   2.6081673  32.4282753  54.5526493  10.5651673  23.2032753  44.4876493
  11.1161673  22.5962753  44.7876493  10.1401673  23.4662753  45.2026493
  10.5841673  23.1522753  44.6366493  12.5351673  25.0342753  41.0496493
  12.6031673  24.1842753  41.2306493  11.7121673  25.1202753  40.7716493
  12.4231673  24.9212753  41.0356493   2.2871673  33.5282753  40.2596493
   2.1421673  33.6842753  39.4136493   3.1531673  33.6072753  40.3376493
   2.3941673  33.5632753  40.1466493   6.4541673  25.9252753  39.9876493
   6.5541673  26.0642753  39.1326493   7.2721673  25.8652753  40.2836493
   6.5891673  25.9362753  39.9046493  15.6141673  33.9892753  37.4676493
  16.2511673  33.8552753  38.0486493  15.2731673  33.1952753  37.3506493
  15.6581673  33.8522753  37.5356493  15.8091673  26.4072753  54.2006493
  16.4431673  26.2372753  54.7746493  16.2261673  26.8102753  53.5486493
  15.9641673  26.4422753  54.1896493  11.6891673  30.2542753  39.7896493
  11.4381673  30.1262753  40.6156493  11.3721673  29.5592753  39.3686493
  11.6051673  30.1332753  39.8496493  16.4341673  20.9712753  54.9386493
  16.2381673  21.6152753  55.4936493  15.7121673  20.4812753  54.9306493
  16.2991673  20.9942753  55.0196493  16.3331673  21.9122753  47.9096493
  15.5001673  22.1622753  47.8376493  16.2771673  21.0722753  48.1386493
  16.2021673  21.8252753  47.9326493   5.5931673  18.9002753  53.1036493
   5.8271673  18.3242753  52.4906493   4.7511673  18.7192753  53.2446493
   5.5031673  18.7882753  53.0336493  13.2201673  26.5182753  55.5556493
  14.0911673  26.4822753  55.5196493  13.0011673  26.9382753  54.8236493
  13.3171673  26.5742753  55.4426493   2.9741673  32.3432753  46.7366493
   2.8951673  31.5332753  46.4206493   2.5301673  32.8302753  46.1646493
   2.8971673  32.2952753  46.6056493   8.5751673  28.4622753  39.2196493
   9.2921673  28.1152753  38.8636493   8.5411673  29.2622753  38.8716493
   8.6761673  28.5292753  39.1156493   9.9841673  17.1032753  23.4584083
   9.7391673  17.5912753  22.7784083  10.8471673  17.0302753  23.3584083
  10.0751673  17.1642753  23.3434083   9.7931673  24.0192753  28.1294083
   9.2691673  24.6152753  28.4924083  10.1901673  23.6512753  28.8134083
   9.7741673  24.0532753  28.2844083  15.9371673  31.4602753  21.1004083
  16.6381673  30.9412753  21.0964083  15.3501673  31.0152753  20.6314083
  15.9541673  31.3172753  21.0304083   2.5441673  27.2142753  18.7644083
   2.1521673  26.8432753  18.0784083   2.4641673  26.6162753  19.3934083
   2.4741673  27.0712753  18.7554083  12.4641673  25.0862753  24.8054083
  12.5441673  25.0902753  23.9364083  11.8801673  24.4542753  24.9544083
  12.3891673  24.9932753  24.6994083   6.4531673  18.1902753  22.6134083
   6.3831673  18.8672753  22.0674083   7.1941673  17.8022753  22.3644083
   6.5521673  18.2332753  22.4954083   6.1761673  28.4192753  34.9074083
   5.9401673  28.4162753  35.7474083   5.4281673  28.2712753  34.4834083
   6.0301673  28.3962753  34.9684083   5.5561673  21.0252753  29.3894083
   6.2341673  21.0432753  28.8404083   5.5111673  20.1892753  29.6344083
   5.6491673  20.9042753  29.3444083   6.1581673  31.6112753  32.1704083
   6.2961673  32.3712753  31.7634083   6.9491673  31.2462753  32.1974083
   6.2951673  31.6702753  32.1144083   3.0491673  23.5152753  24.0654083
   3.8661673  23.3282753  24.3084083   2.5721673  22.9012753  24.4614083
   3.0991673  23.3972753  24.1604083   7.2531673  29.4962753  26.6754083
   7.6011673  28.6972753  26.7054083   7.9181673  30.0002753  26.4204083
   7.4031673  29.4522753  26.6424083   7.3101673  28.9452753  22.8864083
   7.6411673  28.3012753  23.3724083   7.5501673  28.7342753  22.0754083
   7.3941673  28.8192753  22.8384083   9.2781673  23.0762753  34.2254083
   8.4301673  22.9772753  34.0474083   9.3071673  23.8212753  34.6794083
   9.1571673  23.1722753  34.2664083   3.6461673  18.6092753  23.3314083
   3.3501673  19.1102753  22.6814083   4.5131673  18.6872753  23.2744083
   3.7301673  18.6952753  23.2274083  13.8361673  16.0362753  33.3394083
  13.6781673  16.8052753  32.9574083  13.0641673  15.8162753  33.6834083
  13.6981673  16.1172753  33.3344083   6.6251673  17.7512753  25.5544083
   6.6981673  18.6112753  25.6834083   6.5871673  17.6762753  24.6864083
   6.6301673  17.8672753  25.4454083  11.2981673  20.6772753  17.8534083
  10.8481673  21.3582753  18.1604083  11.4121673  20.1732753  18.5564083
  11.2491673  20.7032753  18.0024083   5.2541673  30.7302753  22.4354083
   4.6751673  30.4552753  23.0274083   5.8781673  30.1212753  22.4604083
   5.2611673  30.6002753  22.5264083  11.3971673  33.0182753  19.9574083
  12.1241673  33.4902753  20.0594083  11.6261673  32.2242753  20.2374083
  11.5391673  32.9712753  20.0144083   9.5651673  33.4102753  21.9474083
   9.7791673  33.9372753  22.6094083  10.3321673  33.2362753  21.5684083
   9.7101673  33.4622753  21.9894083   2.5331673  17.9932753  27.5464083
   2.0121673  17.3652753  27.2384083   3.1241673  17.5562753  28.0174083
   2.5441673  17.8352753  27.5704083   5.8391673  20.1262753  36.8444083
   5.9561673  19.6722753  36.1084083   6.1271673  20.9242753  36.6414083
   5.8991673  20.1772753  36.7054083  16.6921673  20.6502753  24.1484083
  16.3461673  21.3282753  24.5744083  16.0561673  20.0522753  24.1644083
  16.5471673  20.6622753  24.2134083  12.0041673  33.4202753  30.2524083
  12.7481673  33.8762753  30.2424083  11.8831673  33.2062753  29.4154083
  12.0961673  33.4562753  30.1274083   1.7771673  30.0432753  26.3864083
   2.2001673  29.6872753  25.7124083   2.1011673  29.6212753  27.0784083
   1.8871673  29.9282753  26.3894083   5.0081673  32.8952753  25.6824083
   5.8521673  32.9992753  25.4874083   4.7111673  33.7132753  25.7504083
   5.0891673  33.0312753  25.6634083   8.2211673  17.3662753  34.9964083
   8.3991673  16.5572753  34.7214083   8.0781673  17.8072753  34.2574083
   8.2261673  17.3122753  34.8464083   8.8151673  22.2922753  23.7694083
   9.1021673  22.0602753  22.9794083   9.5471673  22.3712753  24.2384083
   8.9651673  22.2692753  23.7224083   9.5371673  22.6312753  18.8904083
   9.8181673  23.4192753  19.1394083   8.7611673  22.7962753  18.5274083
   9.4641673  22.7722753  18.8734083  13.5781673  34.6052753  20.3574083
  14.2431673  34.4572753  19.8124083  13.9381673  34.5222753  21.1474083
  13.7301673  34.5712753  20.3934083   4.0061673  34.1142753  31.4224083
   4.2981673  34.0472753  32.2424083   3.3801673  33.5092753  31.3774083
   3.9571673  34.0152753  31.5374083  16.3671673  18.9732753  29.5174083
  17.1241673  19.0452753  29.0894083  16.4301673  18.2002753  29.9164083
  16.4881673  18.8702753  29.5124083  11.2581673  30.6052753  33.9564083
  11.2241673  30.9872753  34.7404083  12.1121673  30.5632753  33.7854083
  11.3791673  30.6552753  34.0474083   8.3961673  30.8022753  18.7064083
   8.2151673  31.3472753  19.3634083   9.1621673  31.0922753  18.4054083
   8.4821673  30.9262753  18.7594083  11.9031673  18.6982753  19.7604083
  12.4431673  18.0162753  19.8364083  11.9651673  19.0962753  20.5344083
  11.9921673  18.6562753  19.8864083   9.1611673  21.0742753  21.0744083
   8.6531673  20.4122753  20.8204083   9.2131673  21.5782753  20.3644083
   9.0941673  21.0512753  20.9324083   9.7101673  33.7692753  31.4544083
  10.4781673  33.6892753  31.0484083   9.1271673  33.6482753  30.8164083
   9.7371673  33.7392753  31.3004083   9.1611673  18.0152753  20.9654083
   8.7061673  17.6132753  20.3394083   9.9341673  18.1702753  20.5904083
   9.2081673  17.9792753  20.8174083  15.9871673  34.3722753  24.3554083
  15.5321673  35.0892753  24.5564083  15.3731673  33.8012753  24.1134083
  15.8291673  34.3942753  24.3494083   7.7591673  20.3822753  25.4874083
   7.8331673  20.9502753  24.8294083   7.8801673  20.8742753  26.1974083
   7.7871673  20.5392753  25.4954083  12.9841673  30.2172753  23.8994083
  13.6851673  29.7352753  24.0884083  12.3241673  29.6482753  23.9444083
  12.9901673  30.0622753  23.9334083   3.3601673  31.1272753  33.1114083
   4.2011673  31.1902753  32.8894083   3.3231673  31.5242753  33.8874083
   3.4791673  31.1952753  33.1934083   2.3671673  16.2052753  23.8354083
   2.9031673  16.8932753  23.8254083   2.3701673  15.9312753  23.0074083
   2.4461673  16.2662753  23.7114083   5.3231673  26.6382753  27.8604083
   5.4951673  26.4282753  28.6894083   4.6681673  26.1042753  27.6444083
   5.2521673  26.5282753  27.9514083  11.5511673  20.5522753  31.3754083
  11.4561673  20.8712753  32.1814083  10.9581673  19.9132753  31.3374083
  11.4491673  20.5042753  31.4894083   6.0731673  26.5762753  30.4504083
   6.1261673  27.4232753  30.6524083   5.7881673  26.2062753  31.1874083
   6.0391673  26.6462753  30.5884083  12.2501673  27.2712753  29.5804083
  11.7361673  26.8592753  30.1514083  12.1241673  28.1152753  29.7614083
  12.1561673  27.3352753  29.6914083  12.8071673  16.4962753  24.2114083
  12.8561673  16.1782753  25.0224083  13.1301673  15.8522753  23.7184083
  12.8621673  16.3542753  24.2584083  15.2711673  20.7322753  32.5194083
  16.0431673  20.5072753  32.8564083  14.7961673  20.9492753  33.2194083
  15.3151673  20.7312753  32.6724083   2.8151673  20.0152753  25.4894083
   3.0871673  19.5852753  24.7814083   2.6391673  19.3792753  26.0604083
   2.8291673  19.8582753  25.4694083  15.5031673  27.7102753  19.7074083
  15.6221673  27.4232753  20.5224083  16.3101673  27.7312753  19.3774083
  15.6391673  27.6712753  19.7794083   2.6391673  27.4422753  25.0384083
   3.4901673  27.3622753  24.8654083   2.2821673  26.7602753  24.6264083
   2.7121673  27.3292753  24.9514083  17.7371673  32.2192753  33.9614083
  17.0551673  32.5292753  33.5144083  17.3681673  31.7612753  34.6064083
  17.5811673  32.1972753  33.9904083  13.3981673  24.2472753  19.2924083
  13.1781673  24.9782753  18.8704083  12.9501673  24.2982753  20.0394083
  13.2991673  24.3622753  19.3404083   5.0071673  27.4492753  23.2734083
   5.7201673  27.9442753  23.3634083   5.2291673  26.8822753  22.6474083
   5.1451673  27.4382753  23.1944083  17.5851673  19.1082753  18.7454083
  16.9231673  18.5402753  18.7684083  17.3921673  19.6202753  18.0654083
  17.4591673  19.1002753  18.6484083   6.8101673  22.8022753  36.6894083
   6.3261673  23.3792753  37.1314083   6.7821673  23.0972753  35.8684083
   6.7341673  22.9312753  36.6334083  17.9081673  23.4862753  31.3014083
  18.1231673  22.6862753  31.0254083  17.0581673  23.5462753  31.1124083
  17.8141673  23.3772753  31.2324083  15.5871673  18.6662753  21.0244083
  16.3331673  18.2592753  21.2234083  15.8501673  19.3812753  20.5994083
  15.7361673  18.7122753  20.9914083   9.5301673  31.1522753  25.6004083
   9.0071673  31.7862753  25.3074083   9.8401673  30.7882753  24.8714083
   9.4981673  31.1922753  25.4494083   3.6051673  28.9402753  28.3604083
   4.0721673  29.2292753  29.0384083   4.1771673  28.4622753  27.9064083
   3.7591673  28.9122753  28.3934083  12.0411673  20.9542753  26.0974083
  12.3851673  21.1062753  26.8844083  11.5881673  20.2162753  26.2104083
  12.0251673  20.8672753  26.2304083   6.5171673  20.1742753  20.5544083
   6.5151673  20.0572753  19.6894083   6.3361673  21.0222753  20.6464083
   6.4901673  20.2822753  20.4404083  15.5711673  32.6012753  32.0514083
  14.9001673  33.1152753  32.2694083  15.6341673  32.7012753  31.1874083
  15.4811673  32.6922753  31.9564083   4.2551673  30.1262753  25.1864083
   4.3811673  30.9692753  25.3734083   4.9231673  29.7272753  25.5824083
   4.3731673  30.1922753  25.2724083   2.3851673  23.6092753  35.0484083
   1.8491673  23.1032753  35.5164083   2.4051673  23.2192753  34.2684083
   2.3081673  23.4762753  35.0024083   2.8701673  23.0062753  20.1884083
   2.7421673  22.5582753  20.9264083   2.2881673  22.6642753  19.6364083
   2.7651673  22.8892753  20.2164083   3.0371673  24.8362753  26.7874083
   2.2561673  24.7772753  26.4044083   3.1091673  24.0842753  27.2244083
   2.9321673  24.7172753  26.7954083   3.4671673  24.5732753  30.2554083
   3.4921673  23.8982753  29.7044083   2.8211673  25.0692753  29.9434083
   3.3761673  24.5462753  30.1284083  13.3621673  22.2862753  28.6514083
  12.7001673  22.6142753  29.1144083  13.5491673  22.9202753  28.0824083
  13.2921673  22.4282753  28.6354083   7.5671673  33.3502753  29.6474083
   7.2901673  32.7092753  29.1244083   7.3591673  34.0762753  29.2094083
   7.4961673  33.3632753  29.5054083  10.0071673  18.1922753  32.0804083
  10.1561673  17.3672753  31.8374083  10.3861673  18.2472753  32.8644083
  10.0851673  18.0782753  32.1604083  11.5551673  20.2552753  22.1624083
  12.0451673  20.9722753  22.0854083  10.7651673  20.5162753  21.8994083
  11.5111673  20.3992753  22.1124083  12.8691673  28.1332753  34.0724083
  13.3531673  28.8512753  34.1704083  13.2631673  27.7062753  33.4214083
  12.9991673  28.1762753  33.9904083   7.1651673  30.9782753  35.2494083
   7.5191673  30.8002753  36.0264083   6.7291673  30.2492753  35.0504083
   7.1531673  30.8442753  35.3354083   8.1371673  21.7252753  27.8874083
   8.6171673  22.4242753  28.0954083   8.5101673  21.0782753  28.3384083
   8.2631673  21.7332753  27.9844083  10.3261673  24.8942753  20.1614083
  10.3181673  25.6162753  19.6714083   9.6871673  25.0292753  20.7384083
  10.2311673  25.0212753  20.1744083  15.2981673  28.7642753  24.1424083
  15.6541673  28.4142753  24.8574083  15.2901673  28.1032753  23.5724083
  15.3501673  28.6142753  24.1634083  11.3431673  31.8302753  27.9864083
  10.7401673  31.5342753  27.4294083  11.8881673  32.2822753  27.4774083
  11.3341673  31.8532753  27.8284083  11.3561673  28.6812753  27.3864083
  10.5591673  28.9052753  27.6604083  11.6141673  28.0872753  27.9714083
  11.2761673  28.6262753  27.5134083   5.2481673  33.4932753  21.8344083
   5.1011673  32.7172753  22.2054083   5.9371673  33.3462753  21.3194083
   5.3281673  33.3562753  21.8134083   4.9191673  17.2362753  19.8224083
   5.0161673  17.1292753  20.6834083   4.2111673  17.7422753  19.7574083
   4.8291673  17.2952753  19.9404083   7.5401673  33.0092753  20.2364083
   8.1621673  33.1722753  20.8264083   7.5761673  33.7002753  19.7044083
   7.6371673  33.1352753  20.2454083  14.6161673  26.6792753  32.2324083
  14.6711673  26.8042753  31.3704083  15.3691673  26.9992753  32.5344083
  14.7351673  26.7442753  32.1494083  10.8071673  32.0282753  36.5094083
  10.9711673  32.3112753  37.3184083  11.0701673  32.6892753  36.0044083
  10.8701673  32.1682753  36.5544083  15.6481673  16.9772753  35.2194083
  15.0111673  16.5772753  34.7774083  15.6741673  16.5462753  35.9774083
  15.5581673  16.8552753  35.2654083   2.0411673  25.5432753  21.0654083
   2.3651673  24.7642753  20.8434083   2.6871673  25.9112753  21.5204083
   2.1841673  25.4822753  21.0994083  10.3471673  26.4852753  31.8324083
  10.1921673  27.0952753  32.4364083  10.8811673  25.9272753  32.2384083
  10.4031673  26.4932753  31.9814083   8.7311673  24.8852753  22.4904083
   8.7901673  25.5352753  23.0694083   8.5421673  24.1892753  22.9814083
   8.7121673  24.8782753  22.6484083  13.9571673  29.2142753  28.3594083
  13.4781673  29.5122753  27.6934083  13.6011673  28.4382753  28.5374083
  13.8341673  29.1432753  28.2874083   3.2271673  19.4022753  19.0024083
   2.7161673  19.4552753  18.2964083   4.0111673  19.6422753  18.7064083
   3.2671673  19.4452753  18.8544083   7.9541673  26.9322753  26.9214083
   7.1071673  26.7382753  27.0024083   8.2781673  26.7672753  27.7144083
   7.8761673  26.8792753  27.0504083   4.7061673  33.6622753  17.8074083
   5.1451673  32.9652753  18.0954083   4.9131673  34.2862753  18.3804083
   4.8021673  33.6512753  17.9344083   5.0321673  21.7962753  25.9724083
   5.8781673  21.6062753  26.0704083   4.6621673  21.0192753  25.8344083
   5.1021673  21.6532753  25.9664083  17.6491673  33.3802753  20.2994083
  18.3431673  32.9132753  20.0514083  17.1101673  32.7822753  20.6364083
  17.6721673  33.2222753  20.3124083   4.3781673  24.5682753  18.1134083
   3.7681673  24.1632753  18.5874083   3.9921673  24.6862753  17.3404083
   4.2311673  24.5252753  18.0694083  16.1441673  26.2272753  26.9154083
  15.8581673  26.6282753  27.6354083  17.0041673  26.1652753  27.0424083
  16.2291673  26.2772753  27.0404083   5.8331673  23.0292753  20.8234083
   6.1051673  23.8552753  20.8904083   4.9701673  23.1042753  20.7274083
   5.7461673  23.1622753  20.8184083  13.8061673  20.1512753  35.4554083
  13.2811673  20.6102753  35.9794083  13.4451673  19.3562753  35.4494083
  13.6751673  20.1012753  35.5314083  17.2751673  31.8602753  27.4444083
  17.5651673  32.1172753  26.6634083  17.9701673  31.9562753  27.9634083
  17.4211673  31.9122753  27.4054083  12.2981673  23.7202753  35.5314083
  12.3711673  23.8242753  36.3944083  11.6641673  24.2782753  35.3104083
  12.2151673  23.8182753  35.6264083  14.5661673  24.0392753  33.8964083
  14.8851673  24.8252753  34.0994083  14.1961673  23.7692753  34.6394083
  14.5591673  24.1152753  34.0364083  13.8801673  30.4632753  19.4264083
  14.2141673  29.6572753  19.4614083  13.1251673  30.3912753  19.8564083
  13.8181673  30.3332753  19.4954083  14.3621673  22.2972753  25.0854083
  13.6171673  21.9742753  25.4034083  14.3641673  23.1232753  25.3654083
  14.2521673  22.3712753  25.1734083  17.2641673  24.5812753  36.6314083
  17.2121673  24.2402753  35.8304083  18.0011673  25.0482753  36.6094083
  17.3651673  24.6002753  36.5094083  16.8021673  28.2572753  32.8374083
  17.4301673  27.7082753  32.5814083  16.7411673  28.8222753  32.1754083
  16.8861673  28.2602753  32.7014083  11.2541673  28.3382753  18.8294083
  11.9381673  27.8242753  18.6604083  10.8371673  28.3842753  18.0644083
  11.2931673  28.2692753  18.6914083   5.9361673  29.4882753  30.1334083
   5.6381673  30.0802753  30.7004083   5.9911673  29.9302753  29.3844083
   5.9001673  29.6412753  30.1064083   3.9151673  28.4382753  33.5314083
   3.1091673  28.1482753  33.6984083   3.8261673  29.3062753  33.5374083
   3.7831673  28.5232753  33.5564083  13.2741673  18.6272753  32.5464083
  14.0181673  19.0792753  32.4834083  12.7081673  19.0972753  32.0774083
  13.3011673  18.7642753  32.4684083   8.4521673  25.9112753  29.6244083
   8.9281673  26.2852753  30.2524083   7.6291673  26.0452753  29.8834083
   8.4011673  25.9862753  29.7554083   5.1621673  21.5142753  32.3654083
   5.3231673  20.7702753  32.7924083   5.1171673  21.2652753  31.5304083
   5.1791673  21.3672753  32.3054083   7.7161673  33.3042753  24.8524083
   8.2621673  33.9832753  24.9064083   7.3661673  33.3862753  24.0574083
   7.7451673  33.4172753  24.7424083  14.5591673  16.6072753  30.2164083
  14.2791673  17.4322753  30.1724083  15.2751673  16.6602753  30.7124083
  14.6241673  16.7372753  30.2834083   6.9141673  17.3222753  32.2454083
   7.6191673  17.6422753  31.8434083   7.1551673  16.5152753  32.4724083
   7.0531673  17.2502753  32.2194083   5.8991673  31.5322753  28.2414083
   5.2751673  32.1142753  28.0594083   6.1471673  31.2462753  27.4554083
   5.8431673  31.5762753  28.0984083  10.2081673  28.1662753  35.2304083
  10.9651673  28.4522753  34.9044083   9.6611673  28.2182753  34.5524083
  10.2391673  28.2162753  35.0814083  14.1171673  30.7162753  33.7344083
  14.4631673  30.9862753  34.4884083  14.4111673  31.2982753  33.1544083
  14.2121673  30.8422753  33.7604083  15.9801673  22.8622753  19.0734083
  16.3581673  23.5392753  18.6734083  15.1381673  23.0862753  19.1044083
  15.9111673  22.9952753  19.0184083   7.4931673  26.3082753  18.1564083
   6.6881673  26.1312753  17.8714083   7.4601673  27.1592753  18.3484083
   7.3691673  26.4072753  18.1434083   3.4231673  22.3752753  28.3064083
   3.8631673  22.2722753  27.5604083   3.9681673  22.0622753  28.9114083
   3.5681673  22.3142753  28.2854083  11.4391673  21.4772753  33.8984083
  10.7911673  21.9472753  34.2464083  12.0041673  21.3882753  34.5574083
  11.4271673  21.5332753  34.0474083  11.1271673  23.0142753  30.1964083
  11.4291673  23.4342753  30.8994083  11.1631673  22.1742753  30.4284083
  11.1771673  22.9522753  30.3344083   8.5521673  33.1812753  34.1214083
   9.0301673  32.5812753  33.7054083   8.2011673  32.7382753  34.7864083
   8.5711673  33.0272753  34.1584083  13.6751673  22.4612753  22.4484083
  13.8821673  22.2602753  23.2724083  14.4311673  22.7292753  22.1064083
  13.8171673  22.4712753  22.5194083   6.9701673  17.3602753  28.3534083
   6.1441673  17.2112753  28.5904083   6.9301673  17.3952753  27.4824083
   6.8421673  17.3432753  28.2594083  14.6971673  18.5442753  23.9224083
  13.9831673  18.0732753  24.0934083  14.5351673  18.8852753  23.1364083
  14.5681673  18.5252753  23.8314083  15.1401673  26.4882753  22.3024083
  15.6161673  25.7592753  22.2544083  14.3191673  26.2022753  22.2264083
  15.0891673  26.3382753  22.2834083   8.6111673  28.4002753  33.1414083
   7.8161673  28.3362753  33.4924083   8.6821673  29.2472753  32.9464083
   8.5041673  28.5152753  33.1644083   4.4411673  34.6072753  28.4584083
   4.4521673  34.6662753  29.3284083   4.0161673  33.8602753  28.3084083
   4.3801673  34.5052753  28.5644083   2.5991673  20.5022753  21.6134083
   2.7251673  20.1732753  20.8154083   1.7871673  20.2532753  21.8124083
   2.4981673  20.4172753  21.5254083  11.3561673  27.6552753  24.6574083
  11.4321673  27.9962753  25.4564083  11.5251673  26.8082753  24.7784083
  11.3921673  27.5802753  24.7934083   8.8781673  26.9292753  24.2224083
   8.5801673  26.6142753  24.9794083   9.5731673  27.4022753  24.4574083
   8.9371673  26.9522753  24.3694083   9.1001673  31.0472753  32.2494083
   9.7871673  30.9332753  32.7744083   9.2341673  31.8382753  31.9054083
   9.2211673  31.1472753  32.2764083  17.2761673  23.6562753  34.0604083
  16.4211673  23.5342753  34.1864083  17.4291673  23.2612753  33.2974083
  17.1721673  23.5792753  33.9664083  11.7891673  24.3212753  32.6364083
  11.5341673  23.6022753  33.0584083  12.6101673  24.4372753  32.9064083
  11.8731673  24.2322753  32.7384083   9.7231673  25.5112753  35.8234083
  10.0461673  26.1972753  35.3914083   9.0191673  25.8342753  36.2254083
   9.6661673  25.6602753  35.8184083  12.8071673  33.8852753  26.7524083
  12.3561673  34.5282753  27.1314083  13.5151673  33.8062753  27.2574083
  12.8451673  33.9682753  26.8834083   9.5081673  28.9752753  29.6824083
   8.8141673  29.3772753  30.0254083  10.1851673  29.4082753  30.0214083
   9.5051673  29.0982753  29.7834083  14.8851673  31.5682753  36.2624083
  15.6611673  31.1782753  36.3454083  14.4161673  31.2322753  36.9174083
  14.9301673  31.4612753  36.3714083   2.5761673  22.5132753  32.0294083
   2.9511673  23.1322753  31.5424083   3.2501673  22.0392753  32.3144083
   2.7311673  22.5352753  31.9994083  15.9101673  23.6012753  21.7444083
  16.0131673  23.5432753  20.8804083  16.6511673  23.2692753  22.0624083
  16.0351673  23.5442753  21.6634083   2.9051673  18.3712753  33.7154083
   2.8241673  17.5272753  33.9214083   2.5911673  18.4152753  32.9024083
   2.8471673  18.2532753  33.6254083   9.8301673  30.5662753  22.8514083
   9.6251673  31.3992753  22.6924083   9.0551673  30.1842753  22.9734083
   9.6851673  30.6332753  22.8464083  15.0121673  23.7472753  31.1004083
  15.0101673  22.8842753  31.2244083  15.0791673  24.0712753  31.9074083
  15.0221673  23.6672753  31.2374083  10.8911673  18.5472753  34.8824083
  10.9831673  19.2592753  35.3764083  10.2541673  18.1022753  35.2794083
  10.8101673  18.5862753  35.0144083   9.8851673  18.7372753  25.7364083
   9.1851673  19.2552753  25.6804083   9.9231673  18.3572753  24.9524083
   9.7871673  18.7582753  25.6124083   5.1921673  30.8282753  19.2604083
   5.6331673  30.9082753  20.0084083   4.3871673  30.6122753  19.5184083
   5.1381673  30.8082753  19.4094083  13.4831673  19.2532753  28.5364083
  14.3381673  19.3522753  28.6814083  13.1141673  19.8062753  29.1014083
  13.5551673  19.3502753  28.6414083   4.5111673  25.4792753  32.9134083
   4.1151673  26.2532753  32.9884083   4.1051673  25.1062753  32.2374083
   4.3931673  25.5382753  32.8244083  13.7871673  24.5332753  27.0274083
  14.4531673  25.0742753  27.1874083  13.4421673  24.8442753  26.2884083
  13.8341673  24.6592753  26.9424083  14.1001673  32.5992753  22.8344083
  13.9261673  31.9452753  23.3844083  14.8131673  32.3282753  22.4114083
  14.1801673  32.4622753  22.8534083   2.5211673  29.8982753  19.8614083
   2.2771673  29.5912753  20.6414083   2.4881673  29.1952753  19.3454083
   2.4801673  29.7492753  19.9004083   5.3401673  28.1432753  18.6044083
   4.5221673  27.8752753  18.7444083   5.3121673  28.9952753  18.7894083
   5.2151673  28.2302753  18.6524083   4.9401673  18.4562753  30.3634083
   4.0761673  18.5402753  30.4434083   5.1601673  17.9422753  31.0324083
   4.8451673  18.3932753  30.4744083  16.9581673  17.0912753  31.6924083
  16.9061673  17.0472753  32.5624083  17.6451673  16.5882753  31.5024083
  17.0521673  17.0112753  31.7924083   9.0431673  19.2042753  28.7374083
   8.3061673  18.7502753  28.8504083   9.6141673  18.8022753  29.2604083
   9.0181673  19.0772753  28.8314083  11.7751673  30.0522753  30.5254083
  11.9811673  30.3532753  31.3174083  11.7141673  30.7742753  30.0404083
  11.7961673  30.2032753  30.5704083  11.3091673  34.2662753  34.7714083
  10.5561673  34.2482753  34.3304083  11.4771673  35.1182753  34.8554083
  11.2231673  34.3892753  34.7184083   6.5461673  23.5332753  33.9414083
   6.2241673  22.9572753  33.3714083   6.1871673  24.2882753  33.6954083
   6.4461673  23.5592753  33.8214083   7.3421673  16.7852753  18.5684083
   7.4201673  17.0322753  17.7354083   6.5991673  17.1622753  18.8264083
   7.2441673  16.8772753  18.4834083  16.5871673  28.6912753  29.9834083
  16.5551673  27.8292753  29.8484083  15.8941673  28.9932753  29.5494083
  16.4801673  28.6082753  29.8994083   4.9811673  33.8892753  34.1894083
   5.0221673  34.0152753  35.0524083   5.6321673  33.3292753  34.0334083
   5.0831673  33.8252753  34.2944083  14.6921673  31.9512753  28.7804083
  15.2191673  31.8682753  28.0894083  14.3011673  31.1732753  28.8344083
  14.7121673  31.8242753  28.6864083  11.2061673  17.3952753  27.9884083
  11.8761673  17.9392753  28.1154083  10.7031673  17.8192753  27.4154083
  11.2311673  17.5382753  27.9224083   2.5741673  32.2722753  35.5494083
   3.1691673  32.7032753  36.0214083   2.2101673  32.8962753  35.0604083
   2.6081673  32.4282753  35.5464083  10.5651673  23.2032753  25.4814083
  11.1161673  22.5962753  25.7814083  10.1401673  23.4662753  26.1964083
  10.5841673  23.1522753  25.6304083  12.5351673  25.0342753  22.0434083
  12.6031673  24.1842753  22.2244083  11.7121673  25.1202753  21.7654083
  12.4231673  24.9212753  22.0294083   2.2871673  33.5282753  21.2534083
   2.1421673  33.6842753  20.4074083   3.1531673  33.6072753  21.3314083
   2.3941673  33.5632753  21.1404083   6.4541673  25.9252753  20.9814083
   6.5541673  26.0642753  20.1264083   7.2721673  25.8652753  21.2774083
   6.5891673  25.9362753  20.8984083  15.6141673  33.9892753  18.4614083
  16.2511673  33.8552753  19.0424083  15.2731673  33.1952753  18.3444083
  15.6581673  33.8522753  18.5294083  15.8091673  26.4072753  35.1944083
  16.4431673  26.2372753  35.7684083  16.2261673  26.8102753  34.5424083
  15.9641673  26.4422753  35.1834083  11.6891673  30.2542753  20.7834083
  11.4381673  30.1262753  21.6094083  11.3721673  29.5592753  20.3624083
  11.6051673  30.1332753  20.8434083  16.4341673  20.9712753  35.9324083
  16.2381673  21.6152753  36.4874083  15.7121673  20.4812753  35.9244083
  16.2991673  20.9942753  36.0134083  16.3331673  21.9122753  28.9034083
  15.5001673  22.1622753  28.8314083  16.2771673  21.0722753  29.1324083
  16.2021673  21.8252753  28.9264083   5.5931673  18.9002753  34.0974083
   5.8271673  18.3242753  33.4844083   4.7511673  18.7192753  34.2384083
   5.5031673  18.7882753  34.0274083  13.2201673  26.5182753  36.5494083
  14.0911673  26.4822753  36.5134083  13.0011673  26.9382753  35.8174083
  13.3171673  26.5742753  36.4364083   2.9741673  32.3432753  27.7304083
   2.8951673  31.5332753  27.4144083   2.5301673  32.8302753  27.1584083
   2.8971673  32.2952753  27.5994083   8.5751673  28.4622753  20.2134083
   9.2921673  28.1152753  19.8574083   8.5411673  29.2622753  19.8654083
   8.6761673  28.5292753  20.1094083   9.9841673  17.1032753   4.4521673
   9.7391673  17.5912753   3.7721673  10.8471673  17.0302753   4.3521673
  10.0751673  17.1642753   4.3371673   9.7931673  24.0192753   9.1231673
   9.2691673  24.6152753   9.4861673  10.1901673  23.6512753   9.8071673
   9.7741673  24.0532753   9.2781673  15.9371673  31.4602753   2.0941673
  16.6381673  30.9412753   2.0901673  15.3501673  31.0152753   1.6251673
  15.9541673  31.3172753   2.0241673  12.4641673  25.0862753   5.7991673
  12.5441673  25.0902753   4.9301673  11.8801673  24.4542753   5.9481673
  12.3891673  24.9932753   5.6931673   6.4531673  18.1902753   3.6071673
   6.3831673  18.8672753   3.0611673   7.1941673  17.8022753   3.3581673
   6.5521673  18.2332753   3.4891673   6.1761673  28.4192753  15.9011673
   5.9401673  28.4162753  16.7411673   5.4281673  28.2712753  15.4771673
   6.0301673  28.3962753  15.9621673   5.5561673  21.0252753  10.3831673
   6.2341673  21.0432753   9.8341673   5.5111673  20.1892753  10.6281673
   5.6491673  20.9042753  10.3381673   6.1581673  31.6112753  13.1641673
   6.2961673  32.3712753  12.7571673   6.9491673  31.2462753  13.1911673
   6.2951673  31.6702753  13.1081673   3.0491673  23.5152753   5.0591673
   3.8661673  23.3282753   5.3021673   2.5721673  22.9012753   5.4551673
   3.0991673  23.3972753   5.1541673   7.2531673  29.4962753   7.6691673
   7.6011673  28.6972753   7.6991673   7.9181673  30.0002753   7.4141673
   7.4031673  29.4522753   7.6361673   7.3101673  28.9452753   3.8801673
   7.6411673  28.3012753   4.3661673   7.5501673  28.7342753   3.0691673
   7.3941673  28.8192753   3.8321673   9.2781673  23.0762753  15.2191673
   8.4301673  22.9772753  15.0411673   9.3071673  23.8212753  15.6731673
   9.1571673  23.1722753  15.2601673   3.6461673  18.6092753   4.3251673
   3.3501673  19.1102753   3.6751673   4.5131673  18.6872753   4.2681673
   3.7301673  18.6952753   4.2211673  13.8361673  16.0362753  14.3331673
  13.6781673  16.8052753  13.9511673  13.0641673  15.8162753  14.6771673
  13.6981673  16.1172753  14.3281673   6.6251673  17.7512753   6.5481673
   6.6981673  18.6112753   6.6771673   6.5871673  17.6762753   5.6801673
   6.6301673  17.8672753   6.4391673   5.2541673  30.7302753   3.4291673
   4.6751673  30.4552753   4.0211673   5.8781673  30.1212753   3.4541673
   5.2611673  30.6002753   3.5201673   9.5651673  33.4102753   2.9411673
   9.7791673  33.9372753   3.6031673  10.3321673  33.2362753   2.5621673
   9.7101673  33.4622753   2.9831673   2.5331673  17.9932753   8.5401673
   2.0121673  17.3652753   8.2321673   3.1241673  17.5562753   9.0111673
   2.5441673  17.8352753   8.5641673   5.8391673  20.1262753  17.8381673
   5.9561673  19.6722753  17.1021673   6.1271673  20.9242753  17.6351673
   5.8991673  20.1772753  17.6991673  16.6921673  20.6502753   5.1421673
  16.3461673  21.3282753   5.5681673  16.0561673  20.0522753   5.1581673
  16.5471673  20.6622753   5.2071673  12.0041673  33.4202753  11.2461673
  12.7481673  33.8762753  11.2361673  11.8831673  33.2062753  10.4091673
  12.0961673  33.4562753  11.1211673   1.7771673  30.0432753   7.3801673
   2.2001673  29.6872753   6.7061673   2.1011673  29.6212753   8.0721673
   1.8871673  29.9282753   7.3831673   5.0081673  32.8952753   6.6761673
   5.8521673  32.9992753   6.4811673   4.7111673  33.7132753   6.7441673
   5.0891673  33.0312753   6.6571673   8.2211673  17.3662753  15.9901673
   8.3991673  16.5572753  15.7151673   8.0781673  17.8072753  15.2511673
   8.2261673  17.3122753  15.8401673   8.8151673  22.2922753   4.7631673
   9.1021673  22.0602753   3.9731673   9.5471673  22.3712753   5.2321673
   8.9651673  22.2692753   4.7161673   4.0061673  34.1142753  12.4161673
   4.2981673  34.0472753  13.2361673   3.3801673  33.5092753  12.3711673
   3.9571673  34.0152753  12.5311673  16.3671673  18.9732753  10.5111673
  17.1241673  19.0452753  10.0831673  16.4301673  18.2002753  10.9101673
  16.4881673  18.8702753  10.5061673  11.2581673  30.6052753  14.9501673
  11.2241673  30.9872753  15.7341673  12.1121673  30.5632753  14.7791673
  11.3791673  30.6552753  15.0411673   9.1611673  21.0742753   2.0681673
   8.6531673  20.4122753   1.8141673   9.2131673  21.5782753   1.3581673
   9.0941673  21.0512753   1.9261673   9.7101673  33.7692753  12.4481673
  10.4781673  33.6892753  12.0421673   9.1271673  33.6482753  11.8101673
   9.7371673  33.7392753  12.2941673   9.1611673  18.0152753   1.9591673
   8.7061673  17.6132753   1.3331673   9.9341673  18.1702753   1.5841673
   9.2081673  17.9792753   1.8111673  15.9871673  34.3722753   5.3491673
  15.5321673  35.0892753   5.5501673  15.3731673  33.8012753   5.1071673
  15.8291673  34.3942753   5.3431673   7.7591673  20.3822753   6.4811673
   7.8331673  20.9502753   5.8231673   7.8801673  20.8742753   7.1911673
   7.7871673  20.5392753   6.4891673  12.9841673  30.2172753   4.8931673
  13.6851673  29.7352753   5.0821673  12.3241673  29.6482753   4.9381673
  12.9901673  30.0622753   4.9271673   3.3601673  31.1272753  14.1051673
   4.2011673  31.1902753  13.8831673   3.3231673  31.5242753  14.8811673
   3.4791673  31.1952753  14.1871673   2.3671673  16.2052753   4.8291673
   2.9031673  16.8932753   4.8191673   2.3701673  15.9312753   4.0011673
   2.4461673  16.2662753   4.7051673   5.3231673  26.6382753   8.8541673
   5.4951673  26.4282753   9.6831673   4.6681673  26.1042753   8.6381673
   5.2521673  26.5282753   8.9451673  11.5511673  20.5522753  12.3691673
  11.4561673  20.8712753  13.1751673  10.9581673  19.9132753  12.3311673
  11.4491673  20.5042753  12.4831673   6.0731673  26.5762753  11.4441673
   6.1261673  27.4232753  11.6461673   5.7881673  26.2062753  12.1811673
   6.0391673  26.6462753  11.5821673  12.2501673  27.2712753  10.5741673
  11.7361673  26.8592753  11.1451673  12.1241673  28.1152753  10.7551673
  12.1561673  27.3352753  10.6851673  12.8071673  16.4962753   5.2051673
  12.8561673  16.1782753   6.0161673  13.1301673  15.8522753   4.7121673
  12.8621673  16.3542753   5.2521673  15.2711673  20.7322753  13.5131673
  16.0431673  20.5072753  13.8501673  14.7961673  20.9492753  14.2131673
  15.3151673  20.7312753  13.6661673   2.8151673  20.0152753   6.4831673
   3.0871673  19.5852753   5.7751673   2.6391673  19.3792753   7.0541673
   2.8291673  19.8582753   6.4631673   2.6391673  27.4422753   6.0321673
   3.4901673  27.3622753   5.8591673   2.2821673  26.7602753   5.6201673
   2.7121673  27.3292753   5.9451673  17.7371673  32.2192753  14.9551673
  17.0551673  32.5292753  14.5081673  17.3681673  31.7612753  15.6001673
  17.5811673  32.1972753  14.9841673   5.0071673  27.4492753   4.2671673
   5.7201673  27.9442753   4.3571673   5.2291673  26.8822753   3.6411673
   5.1451673  27.4382753   4.1881673   6.8101673  22.8022753  17.6831673
   6.3261673  23.3792753  18.1251673   6.7821673  23.0972753  16.8621673
   6.7341673  22.9312753  17.6271673  17.9081673  23.4862753  12.2951673
  18.1231673  22.6862753  12.0191673  17.0581673  23.5462753  12.1061673
  17.8141673  23.3772753  12.2261673  15.5871673  18.6662753   2.0181673
  16.3331673  18.2592753   2.2171673  15.8501673  19.3812753   1.5931673
  15.7361673  18.7122753   1.9851673   9.5301673  31.1522753   6.5941673
   9.0071673  31.7862753   6.3011673   9.8401673  30.7882753   5.8651673
   9.4981673  31.1922753   6.4431673   3.6051673  28.9402753   9.3541673
   4.0721673  29.2292753  10.0321673   4.1771673  28.4622753   8.9001673
   3.7591673  28.9122753   9.3871673  12.0411673  20.9542753   7.0911673
  12.3851673  21.1062753   7.8781673  11.5881673  20.2162753   7.2041673
  12.0251673  20.8672753   7.2241673  15.5711673  32.6012753  13.0451673
  14.9001673  33.1152753  13.2631673  15.6341673  32.7012753  12.1811673
  15.4811673  32.6922753  12.9501673   4.2551673  30.1262753   6.1801673
   4.3811673  30.9692753   6.3671673   4.9231673  29.7272753   6.5761673
   4.3731673  30.1922753   6.2661673   2.3851673  23.6092753  16.0421673
   1.8491673  23.1032753  16.5101673   2.4051673  23.2192753  15.2621673
   2.3081673  23.4762753  15.9961673   3.0371673  24.8362753   7.7811673
   2.2561673  24.7772753   7.3981673   3.1091673  24.0842753   8.2181673
   2.9321673  24.7172753   7.7891673   3.4671673  24.5732753  11.2491673
   3.4921673  23.8982753  10.6981673   2.8211673  25.0692753  10.9371673
   3.3761673  24.5462753  11.1221673  13.3621673  22.2862753   9.6451673
  12.7001673  22.6142753  10.1081673  13.5491673  22.9202753   9.0761673
  13.2921673  22.4282753   9.6291673   7.5671673  33.3502753  10.6411673
   7.2901673  32.7092753  10.1181673   7.3591673  34.0762753  10.2031673
   7.4961673  33.3632753  10.4991673  10.0071673  18.1922753  13.0741673
  10.1561673  17.3672753  12.8311673  10.3861673  18.2472753  13.8581673
  10.0851673  18.0782753  13.1541673  11.5551673  20.2552753   3.1561673
  12.0451673  20.9722753   3.0791673  10.7651673  20.5162753   2.8931673
  11.5111673  20.3992753   3.1061673  12.8691673  28.1332753  15.0661673
  13.3531673  28.8512753  15.1641673  13.2631673  27.7062753  14.4151673
  12.9991673  28.1762753  14.9841673   7.1651673  30.9782753  16.2431673
   7.5191673  30.8002753  17.0201673   6.7291673  30.2492753  16.0441673
   7.1531673  30.8442753  16.3291673   8.1371673  21.7252753   8.8811673
   8.6171673  22.4242753   9.0891673   8.5101673  21.0782753   9.3321673
   8.2631673  21.7332753   8.9781673  15.2981673  28.7642753   5.1361673
  15.6541673  28.4142753   5.8511673  15.2901673  28.1032753   4.5661673
  15.3501673  28.6142753   5.1571673  11.3431673  31.8302753   8.9801673
  10.7401673  31.5342753   8.4231673  11.8881673  32.2822753   8.4711673
  11.3341673  31.8532753   8.8221673  11.3561673  28.6812753   8.3801673
  10.5591673  28.9052753   8.6541673  11.6141673  28.0872753   8.9651673
  11.2761673  28.6262753   8.5071673   5.2481673  33.4932753   2.8281673
   5.1011673  32.7172753   3.1991673   5.9371673  33.3462753   2.3131673
   5.3281673  33.3562753   2.8071673  14.6161673  26.6792753  13.2261673
  14.6711673  26.8042753  12.3641673  15.3691673  26.9992753  13.5281673
  14.7351673  26.7442753  13.1431673  10.8071673  32.0282753  17.5031673
  10.9711673  32.3112753  18.3121673  11.0701673  32.6892753  16.9981673
  10.8701673  32.1682753  17.5481673  15.6481673  16.9772753  16.2131673
  15.0111673  16.5772753  15.7711673  15.6741673  16.5462753  16.9711673
  15.5581673  16.8552753  16.2591673   2.0411673  25.5432753   2.0591673
   2.3651673  24.7642753   1.8371673   2.6871673  25.9112753   2.5141673
   2.1841673  25.4822753   2.0931673  10.3471673  26.4852753  12.8261673
  10.1921673  27.0952753  13.4301673  10.8811673  25.9272753  13.2321673
  10.4031673  26.4932753  12.9751673   8.7311673  24.8852753   3.4841673
   8.7901673  25.5352753   4.0631673   8.5421673  24.1892753   3.9751673
   8.7121673  24.8782753   3.6421673  13.9571673  29.2142753   9.3531673
  13.4781673  29.5122753   8.6871673  13.6011673  28.4382753   9.5311673
  13.8341673  29.1432753   9.2811673   7.9541673  26.9322753   7.9151673
   7.1071673  26.7382753   7.9961673   8.2781673  26.7672753   8.7081673
   7.8761673  26.8792753   8.0441673   5.0321673  21.7962753   6.9661673
   5.8781673  21.6062753   7.0641673   4.6621673  21.0192753   6.8281673
   5.1021673  21.6532753   6.9601673  14.8881673  26.1562753  10.4721673
  14.8811673  25.3802753  10.8701673  14.0471673  26.3902753  10.4651673
  14.7631673  26.0762753  10.5301673  16.1441673  26.2272753   7.9091673
  15.8581673  26.6282753   8.6291673  17.0041673  26.1652753   8.0361673
  16.2291673  26.2772753   8.0341673   5.8331673  23.0292753   1.8171673
   6.1051673  23.8552753   1.8841673   4.9701673  23.1042753   1.7211673
   5.7461673  23.1622753   1.8121673  13.8061673  20.1512753  16.4491673
  13.2811673  20.6102753  16.9731673  13.4451673  19.3562753  16.4431673
  13.6751673  20.1012753  16.5251673  17.2751673  31.8602753   8.4381673
  17.5651673  32.1172753   7.6571673  17.9701673  31.9562753   8.9571673
  17.4211673  31.9122753   8.3991673  12.2981673  23.7202753  16.5251673
  12.3711673  23.8242753  17.3881673  11.6641673  24.2782753  16.3041673
  12.2151673  23.8182753  16.6201673  14.5661673  24.0392753  14.8901673
  14.8851673  24.8252753  15.0931673  14.1961673  23.7692753  15.6331673
  14.5591673  24.1152753  15.0301673  14.3621673  22.2972753   6.0791673
  13.6171673  21.9742753   6.3971673  14.3641673  23.1232753   6.3591673
  14.2521673  22.3712753   6.1671673  17.2641673  24.5812753  17.6251673
  17.2121673  24.2402753  16.8241673  18.0011673  25.0482753  17.6031673
  17.3651673  24.6002753  17.5031673  16.8021673  28.2572753  13.8311673
  17.4301673  27.7082753  13.5751673  16.7411673  28.8222753  13.1691673
  16.8861673  28.2602753  13.6951673   5.9361673  29.4882753  11.1271673
   5.6381673  30.0802753  11.6941673   5.9911673  29.9302753  10.3781673
   5.9001673  29.6412753  11.1001673   3.9151673  28.4382753  14.5251673
   3.1091673  28.1482753  14.6921673   3.8261673  29.3062753  14.5311673
   3.7831673  28.5232753  14.5501673  13.2741673  18.6272753  13.5401673
  14.0181673  19.0792753  13.4771673  12.7081673  19.0972753  13.0711673
  13.3011673  18.7642753  13.4621673   8.4521673  25.9112753  10.6181673
   8.9281673  26.2852753  11.2461673   7.6291673  26.0452753  10.8771673
   8.4011673  25.9862753  10.7491673   5.1621673  21.5142753  13.3591673
   5.3231673  20.7702753  13.7861673   5.1171673  21.2652753  12.5241673
   5.1791673  21.3672753  13.2991673   7.7161673  33.3042753   5.8461673
   8.2621673  33.9832753   5.9001673   7.3661673  33.3862753   5.0511673
   7.7451673  33.4172753   5.7361673  14.5591673  16.6072753  11.2101673
  14.2791673  17.4322753  11.1661673  15.2751673  16.6602753  11.7061673
  14.6241673  16.7372753  11.2771673   6.9141673  17.3222753  13.2391673
   7.6191673  17.6422753  12.8371673   7.1551673  16.5152753  13.4661673
   7.0531673  17.2502753  13.2131673   5.8991673  31.5322753   9.2351673
   5.2751673  32.1142753   9.0531673   6.1471673  31.2462753   8.4491673
   5.8431673  31.5762753   9.0921673  10.2081673  28.1662753  16.2241673
  10.9651673  28.4522753  15.8981673   9.6611673  28.2182753  15.5461673
  10.2391673  28.2162753  16.0751673  14.1171673  30.7162753  14.7281673
  14.4631673  30.9862753  15.4821673  14.4111673  31.2982753  14.1481673
  14.2121673  30.8422753  14.7541673   3.4231673  22.3752753   9.3001673
   3.8631673  22.2722753   8.5541673   3.9681673  22.0622753   9.9051673
   3.5681673  22.3142753   9.2791673  11.4391673  21.4772753  14.8921673
  10.7911673  21.9472753  15.2401673  12.0041673  21.3882753  15.5511673
  11.4271673  21.5332753  15.0411673  11.1271673  23.0142753  11.1901673
  11.4291673  23.4342753  11.8931673  11.1631673  22.1742753  11.4221673
  11.1771673  22.9522753  11.3281673   8.5521673  33.1812753  15.1151673
   9.0301673  32.5812753  14.6991673   8.2011673  32.7382753  15.7801673
   8.5711673  33.0272753  15.1521673  13.6751673  22.4612753   3.4421673
  13.8821673  22.2602753   4.2661673  14.4311673  22.7292753   3.1001673
  13.8171673  22.4712753   3.5131673   6.9701673  17.3602753   9.3471673
   6.1441673  17.2112753   9.5841673   6.9301673  17.3952753   8.4761673
   6.8421673  17.3432753   9.2531673  14.6971673  18.5442753   4.9161673
  13.9831673  18.0732753   5.0871673  14.5351673  18.8852753   4.1301673
  14.5681673  18.5252753   4.8251673  15.1401673  26.4882753   3.2961673
  15.6161673  25.7592753   3.2481673  14.3191673  26.2022753   3.2201673
  15.0891673  26.3382753   3.2771673   8.6111673  28.4002753  14.1351673
   7.8161673  28.3362753  14.4861673   8.6821673  29.2472753  13.9401673
   8.5041673  28.5152753  14.1581673   4.4411673  34.6072753   9.4521673
   4.4521673  34.6662753  10.3221673   4.0161673  33.8602753   9.3021673
   4.3801673  34.5052753   9.5581673   2.5991673  20.5022753   2.6071673
   2.7251673  20.1732753   1.8091673   1.7871673  20.2532753   2.8061673
   2.4981673  20.4172753   2.5191673  11.3561673  27.6552753   5.6511673
  11.4321673  27.9962753   6.4501673  11.5251673  26.8082753   5.7721673
  11.3921673  27.5802753   5.7871673   8.8781673  26.9292753   5.2161673
   8.5801673  26.6142753   5.9731673   9.5731673  27.4022753   5.4511673
   8.9371673  26.9522753   5.3631673   9.1001673  31.0472753  13.2431673
   9.7871673  30.9332753  13.7681673   9.2341673  31.8382753  12.8991673
   9.2211673  31.1472753  13.2701673  17.2761673  23.6562753  15.0541673
  16.4211673  23.5342753  15.1801673  17.4291673  23.2612753  14.2911673
  17.1721673  23.5792753  14.9601673  11.7891673  24.3212753  13.6301673
  11.5341673  23.6022753  14.0521673  12.6101673  24.4372753  13.9001673
  11.8731673  24.2322753  13.7321673   9.7231673  25.5112753  16.8171673
  10.0461673  26.1972753  16.3851673   9.0191673  25.8342753  17.2191673
   9.6661673  25.6602753  16.8121673  12.8071673  33.8852753   7.7461673
  12.3561673  34.5282753   8.1251673  13.5151673  33.8062753   8.2511673
  12.8451673  33.9682753   7.8771673   9.5081673  28.9752753  10.6761673
   8.8141673  29.3772753  11.0191673  10.1851673  29.4082753  11.0151673
   9.5051673  29.0982753  10.7771673  14.8851673  31.5682753  17.2561673
  15.6611673  31.1782753  17.3391673  14.4161673  31.2322753  17.9111673
  14.9301673  31.4612753  17.3651673   2.5761673  22.5132753  13.0231673
   2.9511673  23.1322753  12.5361673   3.2501673  22.0392753  13.3081673
   2.7311673  22.5352753  12.9931673  15.9101673  23.6012753   2.7381673
  16.0131673  23.5432753   1.8741673  16.6511673  23.2692753   3.0561673
  16.0351673  23.5442753   2.6571673   2.9051673  18.3712753  14.7091673
   2.8241673  17.5272753  14.9151673   2.5911673  18.4152753  13.8961673
   2.8471673  18.2532753  14.6191673   9.8301673  30.5662753   3.8451673
   9.6251673  31.3992753   3.6861673   9.0551673  30.1842753   3.9671673
   9.6851673  30.6332753   3.8401673  15.0121673  23.7472753  12.0941673
  15.0101673  22.8842753  12.2181673  15.0791673  24.0712753  12.9011673
  15.0221673  23.6672753  12.2311673  10.8911673  18.5472753  15.8761673
  10.9831673  19.2592753  16.3701673  10.2541673  18.1022753  16.2731673
  10.8101673  18.5862753  16.0081673   9.8851673  18.7372753   6.7301673
   9.1851673  19.2552753   6.6741673   9.9231673  18.3572753   5.9461673
   9.7871673  18.7582753   6.6061673  13.4831673  19.2532753   9.5301673
  14.3381673  19.3522753   9.6751673  13.1141673  19.8062753  10.0951673
  13.5551673  19.3502753   9.6351673   4.5111673  25.4792753  13.9071673
   4.1151673  26.2532753  13.9821673   4.1051673  25.1062753  13.2311673
   4.3931673  25.5382753  13.8181673  13.7871673  24.5332753   8.0211673
  14.4531673  25.0742753   8.1811673  13.4421673  24.8442753   7.2821673
  13.8341673  24.6592753   7.9361673  14.1001673  32.5992753   3.8281673
  13.9261673  31.9452753   4.3781673  14.8131673  32.3282753   3.4051673
  14.1801673  32.4622753   3.8471673   4.9401673  18.4562753  11.3571673
   4.0761673  18.5402753  11.4371673   5.1601673  17.9422753  12.0261673
   4.8451673  18.3932753  11.4681673  16.9581673  17.0912753  12.6861673
  16.9061673  17.0472753  13.5561673  17.6451673  16.5882753  12.4961673
  17.0521673  17.0112753  12.7861673   9.0431673  19.2042753   9.7311673
   8.3061673  18.7502753   9.8441673   9.6141673  18.8022753  10.2541673
   9.0181673  19.0772753   9.8251673  11.7751673  30.0522753  11.5191673
  11.9811673  30.3532753  12.3111673  11.7141673  30.7742753  11.0341673
  11.7961673  30.2032753  11.5641673  11.3091673  34.2662753  15.7651673
  10.5561673  34.2482753  15.3241673  11.4771673  35.1182753  15.8491673
  11.2231673  34.3892753  15.7121673   6.5461673  23.5332753  14.9351673
   6.2241673  22.9572753  14.3651673   6.1871673  24.2882753  14.6891673
   6.4461673  23.5592753  14.8151673  16.5871673  28.6912753  10.9771673
  16.5551673  27.8292753  10.8421673  15.8941673  28.9932753  10.5431673
  16.4801673  28.6082753  10.8931673   4.9811673  33.8892753  15.1831673
   5.0221673  34.0152753  16.0461673   5.6321673  33.3292753  15.0271673
   5.0831673  33.8252753  15.2881673  14.6921673  31.9512753   9.7741673
  15.2191673  31.8682753   9.0831673  14.3011673  31.1732753   9.8281673
  14.7121673  31.8242753   9.6801673  11.2061673  17.3952753   8.9821673
  11.8761673  17.9392753   9.1091673  10.7031673  17.8192753   8.4091673
  11.2311673  17.5382753   8.9161673   2.5741673  32.2722753  16.5431673
   3.1691673  32.7032753  17.0151673   2.2101673  32.8962753  16.0541673
   2.6081673  32.4282753  16.5401673  10.5651673  23.2032753   6.4751673
  11.1161673  22.5962753   6.7751673  10.1401673  23.4662753   7.1901673
  10.5841673  23.1522753   6.6241673  12.5351673  25.0342753   3.0371673
  12.6031673  24.1842753   3.2181673  11.7121673  25.1202753   2.7591673
  12.4231673  24.9212753   3.0231673   2.2871673  33.5282753   2.2471673
   2.1421673  33.6842753   1.4011673   3.1531673  33.6072753   2.3251673
   2.3941673  33.5632753   2.1341673  15.8091673  26.4072753  16.1881673
  16.4431673  26.2372753  16.7621673  16.2261673  26.8102753  15.5361673
  15.9641673  26.4422753  16.1771673  11.6891673  30.2542753   1.7771673
  11.4381673  30.1262753   2.6031673  11.3721673  29.5592753   1.3561673
  11.6051673  30.1332753   1.8371673  16.4341673  20.9712753  16.9261673
  16.2381673  21.6152753  17.4811673  15.7121673  20.4812753  16.9181673
  16.2991673  20.9942753  17.0071673  16.3331673  21.9122753   9.8971673
  15.5001673  22.1622753   9.8251673  16.2771673  21.0722753  10.1261673
  16.2021673  21.8252753   9.9201673   5.5931673  18.9002753  15.0911673
   5.8271673  18.3242753  14.4781673   4.7511673  18.7192753  15.2321673
   5.5031673  18.7882753  15.0211673  13.2201673  26.5182753  17.5431673
  14.0911673  26.4822753  17.5071673  13.0011673  26.9382753  16.8111673
  13.3171673  26.5742753  17.4301673   2.9741673  32.3432753   8.7241673
   2.8951673  31.5332753   8.4081673   2.5301673  32.8302753   8.1521673
   2.8971673  32.2952753   8.5931673   9.7931673   5.5411673  85.1481313
   9.2691673   6.1371673  85.5111313  10.1901673   5.1731673  85.8321313
   9.7741673   5.5751673  85.3031313  15.9371673  12.9821673  78.1191313
  16.6381673  12.4631673  78.1151313  15.3501673  12.5371673  77.6501313
  15.9541673  12.8391673  78.0491313   2.5441673   8.7361673  75.7831313
   2.1521673   8.3651673  75.0971313   2.4641673   8.1381673  76.4121313
   2.4741673   8.5931673  75.7741313  12.4641673   6.6081673  81.8241313
  12.5441673   6.6121673  80.9551313  11.8801673   5.9761673  81.9731313
  12.3891673   6.5151673  81.7181313   6.1581673  13.1331673  89.1891313
   6.2961673  13.8931673  88.7821313   6.9491673  12.7681673  89.2161313
   6.2951673  13.1921673  89.1331313   3.0491673   5.0371673  81.0841313
   3.8661673   4.8501673  81.3271313   2.5721673   4.4231673  81.4801313
   3.0991673   4.9191673  81.1791313   7.2531673  11.0181673  83.6941313
   7.6011673  10.2191673  83.7241313   7.9181673  11.5221673  83.4391313
   7.4031673  10.9741673  83.6611313   7.3101673  10.4671673  79.9051313
   7.6411673   9.8231673  80.3911313   7.5501673  10.2561673  79.0941313
   7.3941673  10.3411673  79.8571313   5.2541673  12.2521673  79.4541313
   4.6751673  11.9771673  80.0461313   5.8781673  11.6431673  79.4791313
   5.2611673  12.1221673  79.5451313  11.3971673  14.5401673  76.9761313
  12.1241673  15.0121673  77.0781313  11.6261673  13.7461673  77.2561313
  11.5391673  14.4931673  77.0331313   9.5651673  14.9321673  78.9661313
   9.7791673  15.4591673  79.6281313  10.3321673  14.7581673  78.5871313
   9.7101673  14.9841673  79.0081313  12.0041673  14.9421673  87.2711313
  12.7481673  15.3981673  87.2611313  11.8831673  14.7281673  86.4341313
  12.0961673  14.9781673  87.1461313   1.7771673  11.5651673  83.4051313
   2.2001673  11.2091673  82.7311313   2.1011673  11.1431673  84.0971313
   1.8871673  11.4501673  83.4081313   5.0081673  14.4171673  82.7011313
   5.8521673  14.5211673  82.5061313   4.7111673  15.2351673  82.7691313
   5.0891673  14.5531673  82.6821313   8.8151673   3.8141673  80.7881313
   9.1021673   3.5821673  79.9981313   9.5471673   3.8931673  81.2571313
   8.9651673   3.7911673  80.7411313   9.5371673   4.1531673  75.9091313
   9.8181673   4.9411673  76.1581313   8.7611673   4.3181673  75.5461313
   9.4641673   4.2941673  75.8921313  13.5781673  16.1271673  77.3761313
  14.2431673  15.9791673  76.8311313  13.9381673  16.0441673  78.1661313
  13.7301673  16.0931673  77.4121313   4.0061673  15.6361673  88.4411313
   4.2981673  15.5691673  89.2611313   3.3801673  15.0311673  88.3961313
   3.9571673  15.5371673  88.5561313   8.3961673  12.3241673  75.7251313
   8.2151673  12.8691673  76.3821313   9.1621673  12.6141673  75.4241313
   8.4821673  12.4481673  75.7781313   9.1611673   2.5961673  78.0931313
   8.6531673   1.9341673  77.8391313   9.2131673   3.1001673  77.3831313
   9.0941673   2.5731673  77.9511313   9.7101673  15.2911673  88.4731313
  10.4781673  15.2111673  88.0671313   9.1271673  15.1701673  87.8351313
   9.7371673  15.2611673  88.3191313  15.9871673  15.8941673  81.3741313
  15.5321673  16.6111673  81.5751313  15.3731673  15.3231673  81.1321313
  15.8291673  15.9161673  81.3681313   7.7591673   1.9041673  82.5061313
   7.8331673   2.4721673  81.8481313   7.8801673   2.3961673  83.2161313
   7.7871673   2.0611673  82.5141313  12.9841673  11.7391673  80.9181313
  13.6851673  11.2571673  81.1071313  12.3241673  11.1701673  80.9631313
  12.9901673  11.5841673  80.9521313   3.3601673  12.6491673  90.1301313
   4.2011673  12.7121673  89.9081313   3.3231673  13.0461673  90.9061313
   3.4791673  12.7171673  90.2121313   5.3231673   8.1601673  84.8791313
   5.4951673   7.9501673  85.7081313   4.6681673   7.6261673  84.6631313
   5.2521673   8.0501673  84.9701313   6.0731673   8.0981673  87.4691313
   6.1261673   8.9451673  87.6711313   5.7881673   7.7281673  88.2061313
   6.0391673   8.1681673  87.6071313  12.2501673   8.7931673  86.5991313
  11.7361673   8.3811673  87.1701313  12.1241673   9.6371673  86.7801313
  12.1561673   8.8571673  86.7101313  15.2711673   2.2541673  89.5381313
  16.0431673   2.0291673  89.8751313  14.7961673   2.4711673  90.2381313
  15.3151673   2.2531673  89.6911313  15.5031673   9.2321673  76.7261313
  15.6221673   8.9451673  77.5411313  16.3101673   9.2531673  76.3961313
  15.6391673   9.1931673  76.7981313   2.6391673   8.9641673  82.0571313
   3.4901673   8.8841673  81.8841313   2.2821673   8.2821673  81.6451313
   2.7121673   8.8511673  81.9701313  13.3981673   5.7691673  76.3111313
  13.1781673   6.5001673  75.8891313  12.9501673   5.8201673  77.0581313
  13.2991673   5.8841673  76.3591313   5.0071673   8.9711673  80.2921313
   5.7201673   9.4661673  80.3821313   5.2291673   8.4041673  79.6661313
   5.1451673   8.9601673  80.2131313  17.9081673   5.0081673  88.3201313
  18.1231673   4.2081673  88.0441313  17.0581673   5.0681673  88.1311313
  17.8141673   4.8991673  88.2511313   9.5301673  12.6741673  82.6191313
   9.0071673  13.3081673  82.3261313   9.8401673  12.3101673  81.8901313
   9.4981673  12.7141673  82.4681313   3.6051673  10.4621673  85.3791313
   4.0721673  10.7511673  86.0571313   4.1771673   9.9841673  84.9251313
   3.7591673  10.4341673  85.4121313  15.5711673  14.1231673  89.0701313
  14.9001673  14.6371673  89.2881313  15.6341673  14.2231673  88.2061313
  15.4811673  14.2141673  88.9751313   4.2551673  11.6481673  82.2051313
   4.3811673  12.4911673  82.3921313   4.9231673  11.2491673  82.6011313
   4.3731673  11.7141673  82.2911313   2.8701673   4.5281673  77.2071313
   2.7421673   4.0801673  77.9451313   2.2881673   4.1861673  76.6551313
   2.7651673   4.4111673  77.2351313   3.0371673   6.3581673  83.8061313
   2.2561673   6.2991673  83.4231313   3.1091673   5.6061673  84.2431313
   2.9321673   6.2391673  83.8141313   3.4671673   6.0951673  87.2741313
   3.4921673   5.4201673  86.7231313   2.8211673   6.5911673  86.9621313
   3.3761673   6.0681673  87.1471313  13.3621673   3.8081673  85.6701313
  12.7001673   4.1361673  86.1331313  13.5491673   4.4421673  85.1011313
  13.2921673   3.9501673  85.6541313   7.5671673  14.8721673  86.6661313
   7.2901673  14.2311673  86.1431313   7.3591673  15.5981673  86.2281313
   7.4961673  14.8851673  86.5241313  11.5551673   1.7771673  79.1811313
  12.0451673   2.4941673  79.1041313  10.7651673   2.0381673  78.9181313
  11.5111673   1.9211673  79.1311313  12.8691673   9.6551673  91.0911313
  13.3531673  10.3731673  91.1891313  13.2631673   9.2281673  90.4401313
  12.9991673   9.6981673  91.0091313   8.1371673   3.2471673  84.9061313
   8.6171673   3.9461673  85.1141313   8.5101673   2.6001673  85.3571313
   8.2631673   3.2551673  85.0031313  10.3261673   6.4161673  77.1801313
  10.3181673   7.1381673  76.6901313   9.6871673   6.5511673  77.7571313
  10.2311673   6.5431673  77.1931313  15.2981673  10.2861673  81.1611313
  15.6541673   9.9361673  81.8761313  15.2901673   9.6251673  80.5911313
  15.3501673  10.1361673  81.1821313  11.3431673  13.3521673  85.0051313
  10.7401673  13.0561673  84.4481313  11.8881673  13.8041673  84.4961313
  11.3341673  13.3751673  84.8471313  11.3561673  10.2031673  84.4051313
  10.5591673  10.4271673  84.6791313  11.6141673   9.6091673  84.9901313
  11.2761673  10.1481673  84.5321313   5.2481673  15.0151673  78.8531313
   5.1011673  14.2391673  79.2241313   5.9371673  14.8681673  78.3381313
   5.3281673  14.8781673  78.8321313   7.5401673  14.5311673  77.2551313
   8.1621673  14.6941673  77.8451313   7.5761673  15.2221673  76.7231313
   7.6371673  14.6571673  77.2641313  14.6161673   8.2011673  89.2511313
  14.6711673   8.3261673  88.3891313  15.3691673   8.5211673  89.5531313
  14.7351673   8.2661673  89.1681313   2.0411673   7.0651673  78.0841313
   2.3651673   6.2861673  77.8621313   2.6871673   7.4331673  78.5391313
   2.1841673   7.0041673  78.1181313  10.3471673   8.0071673  88.8511313
  10.1921673   8.6171673  89.4551313  10.8811673   7.4491673  89.2571313
  10.4031673   8.0151673  89.0001313   8.7311673   6.4071673  79.5091313
   8.7901673   7.0571673  80.0881313   8.5421673   5.7111673  80.0001313
   8.7121673   6.4001673  79.6671313  13.9571673  10.7361673  85.3781313
  13.4781673  11.0341673  84.7121313  13.6011673   9.9601673  85.5561313
  13.8341673  10.6651673  85.3061313   7.9541673   8.4541673  83.9401313
   7.1071673   8.2601673  84.0211313   8.2781673   8.2891673  84.7331313
   7.8761673   8.4011673  84.0691313   4.7061673  15.1841673  74.8261313
   5.1451673  14.4871673  75.1141313   4.9131673  15.8081673  75.3991313
   4.8021673  15.1731673  74.9531313   5.0321673   3.3181673  82.9911313
   5.8781673   3.1281673  83.0891313   4.6621673   2.5411673  82.8531313
   5.1021673   3.1751673  82.9851313  17.6491673  14.9021673  77.3181313
  18.3431673  14.4351673  77.0701313  17.1101673  14.3041673  77.6551313
  17.6721673  14.7441673  77.3311313  14.8881673   7.6781673  86.4971313
  14.8811673   6.9021673  86.8951313  14.0471673   7.9121673  86.4901313
  14.7631673   7.5981673  86.5551313   4.3781673   6.0901673  75.1321313
   3.7681673   5.6851673  75.6061313   3.9921673   6.2081673  74.3591313
   4.2311673   6.0471673  75.0881313  16.1441673   7.7491673  83.9341313
  15.8581673   8.1501673  84.6541313  17.0041673   7.6871673  84.0611313
  16.2291673   7.7991673  84.0591313   5.8331673   4.5511673  77.8421313
   6.1051673   5.3771673  77.9091313   4.9701673   4.6261673  77.7461313
   5.7461673   4.6841673  77.8371313  17.2751673  13.3821673  84.4631313
  17.5651673  13.6391673  83.6821313  17.9701673  13.4781673  84.9821313
  17.4211673  13.4341673  84.4241313  13.8801673  11.9851673  76.4451313
  14.2141673  11.1791673  76.4801313  13.1251673  11.9131673  76.8751313
  13.8181673  11.8551673  76.5141313  14.3621673   3.8191673  82.1041313
  13.6171673   3.4961673  82.4221313  14.3641673   4.6451673  82.3841313
  14.2521673   3.8931673  82.1921313  16.8021673   9.7791673  89.8561313
  17.4301673   9.2301673  89.6001313  16.7411673  10.3441673  89.1941313
  16.8861673   9.7821673  89.7201313  11.2541673   9.8601673  75.8481313
  11.9381673   9.3461673  75.6791313  10.8371673   9.9061673  75.0831313
  11.2931673   9.7911673  75.7101313   5.9361673  11.0101673  87.1521313
   5.6381673  11.6021673  87.7191313   5.9911673  11.4521673  86.4031313
   5.9001673  11.1631673  87.1251313   3.9151673   9.9601673  90.5501313
   3.1091673   9.6701673  90.7171313   3.8261673  10.8281673  90.5561313
   3.7831673  10.0451673  90.5751313   8.4521673   7.4331673  86.6431313
   8.9281673   7.8071673  87.2711313   7.6291673   7.5671673  86.9021313
   8.4011673   7.5081673  86.7741313   5.1621673   3.0361673  89.3841313
   5.3231673   2.2921673  89.8111313   5.1171673   2.7871673  88.5491313
   5.1791673   2.8891673  89.3241313   7.7161673  14.8261673  81.8711313
   8.2621673  15.5051673  81.9251313   7.3661673  14.9081673  81.0761313
   7.7451673  14.9391673  81.7611313   5.8991673  13.0541673  85.2601313
   5.2751673  13.6361673  85.0781313   6.1471673  12.7681673  84.4741313
   5.8431673  13.0981673  85.1171313  15.9801673   4.3841673  76.0921313
  16.3581673   5.0611673  75.6921313  15.1381673   4.6081673  76.1231313
  15.9111673   4.5171673  76.0371313   7.4931673   7.8301673  75.1751313
   6.6881673   7.6531673  74.8901313   7.4601673   8.6811673  75.3671313
   7.3691673   7.9291673  75.1621313   3.4231673   3.8971673  85.3251313
   3.8631673   3.7941673  84.5791313   3.9681673   3.5841673  85.9301313
   3.5681673   3.8361673  85.3041313  11.1271673   4.5361673  87.2151313
  11.4291673   4.9561673  87.9181313  11.1631673   3.6961673  87.4471313
  11.1771673   4.4741673  87.3531313  13.6751673   3.9831673  79.4671313
  13.8821673   3.7821673  80.2911313  14.4311673   4.2511673  79.1251313
  13.8171673   3.9931673  79.5381313  15.1401673   8.0101673  79.3211313
  15.6161673   7.2811673  79.2731313  14.3191673   7.7241673  79.2451313
  15.0891673   7.8601673  79.3021313   8.6111673   9.9221673  90.1601313
   7.8161673   9.8581673  90.5111313   8.6821673  10.7691673  89.9651313
   8.5041673  10.0371673  90.1831313   4.4411673  16.1291673  85.4771313
   4.4521673  16.1881673  86.3471313   4.0161673  15.3821673  85.3271313
   4.3801673  16.0271673  85.5831313  11.3561673   9.1771673  81.6761313
  11.4321673   9.5181673  82.4751313  11.5251673   8.3301673  81.7971313
  11.3921673   9.1021673  81.8121313   8.8781673   8.4511673  81.2411313
   8.5801673   8.1361673  81.9981313   9.5731673   8.9241673  81.4761313
   8.9371673   8.4741673  81.3881313   9.1001673  12.5691673  89.2681313
   9.7871673  12.4551673  89.7931313   9.2341673  13.3601673  88.9241313
   9.2211673  12.6691673  89.2951313  17.2761673   5.1781673  91.0791313
  16.4211673   5.0561673  91.2051313  17.4291673   4.7831673  90.3161313
  17.1721673   5.1011673  90.9851313  11.7891673   5.8431673  89.6551313
  11.5341673   5.1241673  90.0771313  12.6101673   5.9591673  89.9251313
  11.8731673   5.7541673  89.7571313  12.8071673  15.4071673  83.7711313
  12.3561673  16.0501673  84.1501313  13.5151673  15.3281673  84.2761313
  12.8451673  15.4901673  83.9021313   9.5081673  10.4971673  86.7011313
   8.8141673  10.8991673  87.0441313  10.1851673  10.9301673  87.0401313
   9.5051673  10.6201673  86.8021313   2.5761673   4.0351673  89.0481313
   2.9511673   4.6541673  88.5611313   3.2501673   3.5611673  89.3331313
   2.7311673   4.0571673  89.0181313  15.9101673   5.1231673  78.7631313
  16.0131673   5.0651673  77.8991313  16.6511673   4.7911673  79.0811313
  16.0351673   5.0661673  78.6821313   9.8301673  12.0881673  79.8701313
   9.6251673  12.9211673  79.7111313   9.0551673  11.7061673  79.9921313
   9.6851673  12.1551673  79.8651313  15.0121673   5.2691673  88.1191313
  15.0101673   4.4061673  88.2431313  15.0791673   5.5931673  88.9261313
  15.0221673   5.1891673  88.2561313   5.1921673  12.3501673  76.2791313
   5.6331673  12.4301673  77.0271313   4.3871673  12.1341673  76.5371313
   5.1381673  12.3301673  76.4281313   4.5111673   7.0011673  89.9321313
   4.1151673   7.7751673  90.0071313   4.1051673   6.6281673  89.2561313
   4.3931673   7.0601673  89.8431313  13.7871673   6.0551673  84.0461313
  14.4531673   6.5961673  84.2061313  13.4421673   6.3661673  83.3071313
  13.8341673   6.1811673  83.9611313  14.1001673  14.1211673  79.8531313
  13.9261673  13.4671673  80.4031313  14.8131673  13.8501673  79.4301313
  14.1801673  13.9841673  79.8721313   2.5211673  11.4201673  76.8801313
   2.2771673  11.1131673  77.6601313   2.4881673  10.7171673  76.3641313
   2.4801673  11.2711673  76.9191313   5.3401673   9.6651673  75.6231313
   4.5221673   9.3971673  75.7631313   5.3121673  10.5171673  75.8081313
   5.2151673   9.7521673  75.6711313  11.7751673  11.5741673  87.5441313
  11.9811673  11.8751673  88.3361313  11.7141673  12.2961673  87.0591313
  11.7961673  11.7251673  87.5891313   6.5461673   5.0551673  90.9601313
   6.2241673   4.4791673  90.3901313   6.1871673   5.8101673  90.7141313
   6.4461673   5.0811673  90.8401313  16.5871673  10.2131673  87.0021313
  16.5551673   9.3511673  86.8671313  15.8941673  10.5151673  86.5681313
  16.4801673  10.1301673  86.9181313  14.6921673  13.4731673  85.7991313
  15.2191673  13.3901673  85.1081313  14.3011673  12.6951673  85.8531313
  14.7121673  13.3461673  85.7051313  10.5651673   4.7251673  82.5001313
  11.1161673   4.1181673  82.8001313  10.1401673   4.9881673  83.2151313
  10.5841673   4.6741673  82.6491313  12.5351673   6.5561673  79.0621313
  12.6031673   5.7061673  79.2431313  11.7121673   6.6421673  78.7841313
  12.4231673   6.4431673  79.0481313   2.2871673  15.0501673  78.2721313
   2.1421673  15.2061673  77.4261313   3.1531673  15.1291673  78.3501313
   2.3941673  15.0851673  78.1591313   6.4541673   7.4471673  78.0001313
   6.5541673   7.5861673  77.1451313   7.2721673   7.3871673  78.2961313
   6.5891673   7.4581673  77.9171313  15.6141673  15.5111673  75.4801313
  16.2511673  15.3771673  76.0611313  15.2731673  14.7171673  75.3631313
  15.6581673  15.3741673  75.5481313  11.6891673  11.7761673  77.8021313
  11.4381673  11.6481673  78.6281313  11.3721673  11.0811673  77.3811313
  11.6051673  11.6551673  77.8621313  16.3331673   3.4341673  85.9221313
  15.5001673   3.6841673  85.8501313  16.2771673   2.5941673  86.1511313
  16.2021673   3.3471673  85.9451313   2.9741673  13.8651673  84.7491313
   2.8951673  13.0551673  84.4331313   2.5301673  14.3521673  84.1771313
   2.8971673  13.8171673  84.6181313   8.5751673   9.9841673  77.2321313
   9.2921673   9.6371673  76.8761313   8.5411673  10.7841673  76.8841313
   8.6761673  10.0511673  77.1281313   9.7931673   5.5411673  66.1418903
   9.2691673   6.1371673  66.5048903  10.1901673   5.1731673  66.8258903
   9.7741673   5.5751673  66.2968903  15.9371673  12.9821673  59.1128903
  16.6381673  12.4631673  59.1088903  15.3501673  12.5371673  58.6438903
  15.9541673  12.8391673  59.0428903   2.5441673   8.7361673  56.7768903
   2.1521673   8.3651673  56.0908903   2.4641673   8.1381673  57.4058903
   2.4741673   8.5931673  56.7678903  12.4641673   6.6081673  62.8178903
  12.5441673   6.6121673  61.9488903  11.8801673   5.9761673  62.9668903
  12.3891673   6.5151673  62.7118903   6.1761673   9.9411673  72.9198903
   5.9401673   9.9381673  73.7598903   5.4281673   9.7931673  72.4958903
   6.0301673   9.9181673  72.9808903   6.1581673  13.1331673  70.1828903
   6.2961673  13.8931673  69.7758903   6.9491673  12.7681673  70.2098903
   6.2951673  13.1921673  70.1268903   3.0491673   5.0371673  62.0778903
   3.8661673   4.8501673  62.3208903   2.5721673   4.4231673  62.4738903
   3.0991673   4.9191673  62.1728903   7.2531673  11.0181673  64.6878903
   7.6011673  10.2191673  64.7178903   7.9181673  11.5221673  64.4328903
   7.4031673  10.9741673  64.6548903   7.3101673  10.4671673  60.8988903
   7.6411673   9.8231673  61.3848903   7.5501673  10.2561673  60.0878903
   7.3941673  10.3411673  60.8508903   9.2781673   4.5981673  72.2378903
   8.4301673   4.4991673  72.0598903   9.3071673   5.3431673  72.6918903
   9.1571673   4.6941673  72.2788903   5.2541673  12.2521673  60.4478903
   4.6751673  11.9771673  61.0398903   5.8781673  11.6431673  60.4728903
   5.2611673  12.1221673  60.5388903  11.3971673  14.5401673  57.9698903
  12.1241673  15.0121673  58.0718903  11.6261673  13.7461673  58.2498903
  11.5391673  14.4931673  58.0268903   9.5651673  14.9321673  59.9598903
   9.7791673  15.4591673  60.6218903  10.3321673  14.7581673  59.5808903
   9.7101673  14.9841673  60.0018903  12.0041673  14.9421673  68.2648903
  12.7481673  15.3981673  68.2548903  11.8831673  14.7281673  67.4278903
  12.0961673  14.9781673  68.1398903   1.7771673  11.5651673  64.3988903
   2.2001673  11.2091673  63.7248903   2.1011673  11.1431673  65.0908903
   1.8871673  11.4501673  64.4018903   5.0081673  14.4171673  63.6948903
   5.8521673  14.5211673  63.4998903   4.7111673  15.2351673  63.7628903
   5.0891673  14.5531673  63.6758903   8.8151673   3.8141673  61.7818903
   9.1021673   3.5821673  60.9918903   9.5471673   3.8931673  62.2508903
   8.9651673   3.7911673  61.7348903   9.5371673   4.1531673  56.9028903
   9.8181673   4.9411673  57.1518903   8.7611673   4.3181673  56.5398903
   9.4641673   4.2941673  56.8858903  13.5781673  16.1271673  58.3698903
  14.2431673  15.9791673  57.8248903  13.9381673  16.0441673  59.1598903
  13.7301673  16.0931673  58.4058903   4.0061673  15.6361673  69.4348903
   4.2981673  15.5691673  70.2548903   3.3801673  15.0311673  69.3898903
   3.9571673  15.5371673  69.5498903  11.2581673  12.1271673  71.9688903
  11.2241673  12.5091673  72.7528903  12.1121673  12.0851673  71.7978903
  11.3791673  12.1771673  72.0598903   8.3961673  12.3241673  56.7188903
   8.2151673  12.8691673  57.3758903   9.1621673  12.6141673  56.4178903
   8.4821673  12.4481673  56.7718903   9.1611673   2.5961673  59.0868903
   8.6531673   1.9341673  58.8328903   9.2131673   3.1001673  58.3768903
   9.0941673   2.5731673  58.9448903   9.7101673  15.2911673  69.4668903
  10.4781673  15.2111673  69.0608903   9.1271673  15.1701673  68.8288903
   9.7371673  15.2611673  69.3128903  15.9871673  15.8941673  62.3678903
  15.5321673  16.6111673  62.5688903  15.3731673  15.3231673  62.1258903
  15.8291673  15.9161673  62.3618903   7.7591673   1.9041673  63.4998903
   7.8331673   2.4721673  62.8418903   7.8801673   2.3961673  64.2098903
   7.7871673   2.0611673  63.5078903  12.9841673  11.7391673  61.9118903
  13.6851673  11.2571673  62.1008903  12.3241673  11.1701673  61.9568903
  12.9901673  11.5841673  61.9458903   3.3601673  12.6491673  71.1238903
   4.2011673  12.7121673  70.9018903   3.3231673  13.0461673  71.8998903
   3.4791673  12.7171673  71.2058903   5.3231673   8.1601673  65.8728903
   5.4951673   7.9501673  66.7018903   4.6681673   7.6261673  65.6568903
   5.2521673   8.0501673  65.9638903   6.0731673   8.0981673  68.4628903
   6.1261673   8.9451673  68.6648903   5.7881673   7.7281673  69.1998903
   6.0391673   8.1681673  68.6008903  12.2501673   8.7931673  67.5928903
  11.7361673   8.3811673  68.1638903  12.1241673   9.6371673  67.7738903
  12.1561673   8.8571673  67.7038903  15.2711673   2.2541673  70.5318903
  16.0431673   2.0291673  70.8688903  14.7961673   2.4711673  71.2318903
  15.3151673   2.2531673  70.6848903  15.5031673   9.2321673  57.7198903
  15.6221673   8.9451673  58.5348903  16.3101673   9.2531673  57.3898903
  15.6391673   9.1931673  57.7918903   2.6391673   8.9641673  63.0508903
   3.4901673   8.8841673  62.8778903   2.2821673   8.2821673  62.6388903
   2.7121673   8.8511673  62.9638903  17.7371673  13.7411673  71.9738903
  17.0551673  14.0511673  71.5268903  17.3681673  13.2831673  72.6188903
  17.5811673  13.7191673  72.0028903  13.3981673   5.7691673  57.3048903
  13.1781673   6.5001673  56.8828903  12.9501673   5.8201673  58.0518903
  13.2991673   5.8841673  57.3528903   5.0071673   8.9711673  61.2858903
   5.7201673   9.4661673  61.3758903   5.2291673   8.4041673  60.6598903
   5.1451673   8.9601673  61.2068903   6.8101673   4.3241673  74.7018903
   6.3261673   4.9011673  75.1438903   6.7821673   4.6191673  73.8808903
   6.7341673   4.4531673  74.6458903  17.9081673   5.0081673  69.3138903
  18.1231673   4.2081673  69.0378903  17.0581673   5.0681673  69.1248903
  17.8141673   4.8991673  69.2448903   9.5301673  12.6741673  63.6128903
   9.0071673  13.3081673  63.3198903   9.8401673  12.3101673  62.8838903
   9.4981673  12.7141673  63.4618903   3.6051673  10.4621673  66.3728903
   4.0721673  10.7511673  67.0508903   4.1771673   9.9841673  65.9188903
   3.7591673  10.4341673  66.4058903  15.5711673  14.1231673  70.0638903
  14.9001673  14.6371673  70.2818903  15.6341673  14.2231673  69.1998903
  15.4811673  14.2141673  69.9688903   4.2551673  11.6481673  63.1988903
   4.3811673  12.4911673  63.3858903   4.9231673  11.2491673  63.5948903
   4.3731673  11.7141673  63.2848903   2.3851673   5.1311673  73.0608903
   1.8491673   4.6251673  73.5288903   2.4051673   4.7411673  72.2808903
   2.3081673   4.9981673  73.0148903   2.8701673   4.5281673  58.2008903
   2.7421673   4.0801673  58.9388903   2.2881673   4.1861673  57.6488903
   2.7651673   4.4111673  58.2288903   3.0371673   6.3581673  64.7998903
   2.2561673   6.2991673  64.4168903   3.1091673   5.6061673  65.2368903
   2.9321673   6.2391673  64.8078903   3.4671673   6.0951673  68.2678903
   3.4921673   5.4201673  67.7168903   2.8211673   6.5911673  67.9558903
   3.3761673   6.0681673  68.1408903  13.3621673   3.8081673  66.6638903
  12.7001673   4.1361673  67.1268903  13.5491673   4.4421673  66.0948903
  13.2921673   3.9501673  66.6478903   7.5671673  14.8721673  67.6598903
   7.2901673  14.2311673  67.1368903   7.3591673  15.5981673  67.2218903
   7.4961673  14.8851673  67.5178903  11.5551673   1.7771673  60.1748903
  12.0451673   2.4941673  60.0978903  10.7651673   2.0381673  59.9118903
  11.5111673   1.9211673  60.1248903  12.8691673   9.6551673  72.0848903
  13.3531673  10.3731673  72.1828903  13.2631673   9.2281673  71.4338903
  12.9991673   9.6981673  72.0028903   7.1651673  12.5001673  73.2618903
   7.5191673  12.3221673  74.0388903   6.7291673  11.7711673  73.0628903
   7.1531673  12.3661673  73.3478903   8.1371673   3.2471673  65.8998903
   8.6171673   3.9461673  66.1078903   8.5101673   2.6001673  66.3508903
   8.2631673   3.2551673  65.9968903  10.3261673   6.4161673  58.1738903
  10.3181673   7.1381673  57.6838903   9.6871673   6.5511673  58.7508903
  10.2311673   6.5431673  58.1868903  15.2981673  10.2861673  62.1548903
  15.6541673   9.9361673  62.8698903  15.2901673   9.6251673  61.5848903
  15.3501673  10.1361673  62.1758903  11.3431673  13.3521673  65.9988903
  10.7401673  13.0561673  65.4418903  11.8881673  13.8041673  65.4898903
  11.3341673  13.3751673  65.8408903  11.3561673  10.2031673  65.3988903
  10.5591673  10.4271673  65.6728903  11.6141673   9.6091673  65.9838903
  11.2761673  10.1481673  65.5258903   5.2481673  15.0151673  59.8468903
   5.1011673  14.2391673  60.2178903   5.9371673  14.8681673  59.3318903
   5.3281673  14.8781673  59.8258903   7.5401673  14.5311673  58.2488903
   8.1621673  14.6941673  58.8388903   7.5761673  15.2221673  57.7168903
   7.6371673  14.6571673  58.2578903  14.6161673   8.2011673  70.2448903
  14.6711673   8.3261673  69.3828903  15.3691673   8.5211673  70.5468903
  14.7351673   8.2661673  70.1618903  10.8071673  13.5501673  74.5218903
  10.9711673  13.8331673  75.3308903  11.0701673  14.2111673  74.0168903
  10.8701673  13.6901673  74.5668903   2.0411673   7.0651673  59.0778903
   2.3651673   6.2861673  58.8558903   2.6871673   7.4331673  59.5328903
   2.1841673   7.0041673  59.1118903  10.3471673   8.0071673  69.8448903
  10.1921673   8.6171673  70.4488903  10.8811673   7.4491673  70.2508903
  10.4031673   8.0151673  69.9938903   8.7311673   6.4071673  60.5028903
   8.7901673   7.0571673  61.0818903   8.5421673   5.7111673  60.9938903
   8.7121673   6.4001673  60.6608903  13.9571673  10.7361673  66.3718903
  13.4781673  11.0341673  65.7058903  13.6011673   9.9601673  66.5498903
  13.8341673  10.6651673  66.2998903   7.9541673   8.4541673  64.9338903
   7.1071673   8.2601673  65.0148903   8.2781673   8.2891673  65.7268903
   7.8761673   8.4011673  65.0628903   4.7061673  15.1841673  55.8198903
   5.1451673  14.4871673  56.1078903   4.9131673  15.8081673  56.3928903
   4.8021673  15.1731673  55.9468903   5.0321673   3.3181673  63.9848903
   5.8781673   3.1281673  64.0828903   4.6621673   2.5411673  63.8468903
   5.1021673   3.1751673  63.9788903  17.6491673  14.9021673  58.3118903
  18.3431673  14.4351673  58.0638903  17.1101673  14.3041673  58.6488903
  17.6721673  14.7441673  58.3248903  14.8881673   7.6781673  67.4908903
  14.8811673   6.9021673  67.8888903  14.0471673   7.9121673  67.4838903
  14.7631673   7.5981673  67.5488903   4.3781673   6.0901673  56.1258903
   3.7681673   5.6851673  56.5998903   3.9921673   6.2081673  55.3528903
   4.2311673   6.0471673  56.0818903  16.1441673   7.7491673  64.9278903
  15.8581673   8.1501673  65.6478903  17.0041673   7.6871673  65.0548903
  16.2291673   7.7991673  65.0528903   5.8331673   4.5511673  58.8358903
   6.1051673   5.3771673  58.9028903   4.9701673   4.6261673  58.7398903
   5.7461673   4.6841673  58.8308903  17.2751673  13.3821673  65.4568903
  17.5651673  13.6391673  64.6758903  17.9701673  13.4781673  65.9758903
  17.4211673  13.4341673  65.4178903  12.2981673   5.2421673  73.5438903
  12.3711673   5.3461673  74.4068903  11.6641673   5.8001673  73.3228903
  12.2151673   5.3401673  73.6388903  14.5661673   5.5611673  71.9088903
  14.8851673   6.3471673  72.1118903  14.1961673   5.2911673  72.6518903
  14.5591673   5.6371673  72.0488903  13.8801673  11.9851673  57.4388903
  14.2141673  11.1791673  57.4738903  13.1251673  11.9131673  57.8688903
  13.8181673  11.8551673  57.5078903  14.3621673   3.8191673  63.0978903
  13.6171673   3.4961673  63.4158903  14.3641673   4.6451673  63.3778903
  14.2521673   3.8931673  63.1858903  17.2641673   6.1031673  74.6438903
  17.2121673   5.7621673  73.8428903  18.0011673   6.5701673  74.6218903
  17.3651673   6.1221673  74.5218903  16.8021673   9.7791673  70.8498903
  17.4301673   9.2301673  70.5938903  16.7411673  10.3441673  70.1878903
  16.8861673   9.7821673  70.7138903  11.2541673   9.8601673  56.8418903
  11.9381673   9.3461673  56.6728903  10.8371673   9.9061673  56.0768903
  11.2931673   9.7911673  56.7038903   5.9361673  11.0101673  68.1458903
   5.6381673  11.6021673  68.7128903   5.9911673  11.4521673  67.3968903
   5.9001673  11.1631673  68.1188903   3.9151673   9.9601673  71.5438903
   3.1091673   9.6701673  71.7108903   3.8261673  10.8281673  71.5498903
   3.7831673  10.0451673  71.5688903   8.4521673   7.4331673  67.6368903
   8.9281673   7.8071673  68.2648903   7.6291673   7.5671673  67.8958903
   8.4011673   7.5081673  67.7678903   5.1621673   3.0361673  70.3778903
   5.3231673   2.2921673  70.8048903   5.1171673   2.7871673  69.5428903
   5.1791673   2.8891673  70.3178903   7.7161673  14.8261673  62.8648903
   8.2621673  15.5051673  62.9188903   7.3661673  14.9081673  62.0698903
   7.7451673  14.9391673  62.7548903   5.8991673  13.0541673  66.2538903
   5.2751673  13.6361673  66.0718903   6.1471673  12.7681673  65.4678903
   5.8431673  13.0981673  66.1108903  10.2081673   9.6881673  73.2428903
  10.9651673   9.9741673  72.9168903   9.6611673   9.7401673  72.5648903
  10.2391673   9.7381673  73.0938903  14.1171673  12.2381673  71.7468903
  14.4631673  12.5081673  72.5008903  14.4111673  12.8201673  71.1668903
  14.2121673  12.3641673  71.7728903  15.9801673   4.3841673  57.0858903
  16.3581673   5.0611673  56.6858903  15.1381673   4.6081673  57.1168903
  15.9111673   4.5171673  57.0308903   7.4931673   7.8301673  56.1688903
   6.6881673   7.6531673  55.8838903   7.4601673   8.6811673  56.3608903
   7.3691673   7.9291673  56.1558903   3.4231673   3.8971673  66.3188903
   3.8631673   3.7941673  65.5728903   3.9681673   3.5841673  66.9238903
   3.5681673   3.8361673  66.2978903  11.4391673   2.9991673  71.9108903
  10.7911673   3.4691673  72.2588903  12.0041673   2.9101673  72.5698903
  11.4271673   3.0551673  72.0598903  11.1271673   4.5361673  68.2088903
  11.4291673   4.9561673  68.9118903  11.1631673   3.6961673  68.4408903
  11.1771673   4.4741673  68.3468903   8.5521673  14.7031673  72.1338903
   9.0301673  14.1031673  71.7178903   8.2011673  14.2601673  72.7988903
   8.5711673  14.5491673  72.1708903  13.6751673   3.9831673  60.4608903
  13.8821673   3.7821673  61.2848903  14.4311673   4.2511673  60.1188903
  13.8171673   3.9931673  60.5318903  15.1401673   8.0101673  60.3148903
  15.6161673   7.2811673  60.2668903  14.3191673   7.7241673  60.2388903
  15.0891673   7.8601673  60.2958903   8.6111673   9.9221673  71.1538903
   7.8161673   9.8581673  71.5048903   8.6821673  10.7691673  70.9588903
   8.5041673  10.0371673  71.1768903   4.4411673  16.1291673  66.4708903
   4.4521673  16.1881673  67.3408903   4.0161673  15.3821673  66.3208903
   4.3801673  16.0271673  66.5768903  11.3561673   9.1771673  62.6698903
  11.4321673   9.5181673  63.4688903  11.5251673   8.3301673  62.7908903
  11.3921673   9.1021673  62.8058903   8.8781673   8.4511673  62.2348903
   8.5801673   8.1361673  62.9918903   9.5731673   8.9241673  62.4698903
   8.9371673   8.4741673  62.3818903   9.1001673  12.5691673  70.2618903
   9.7871673  12.4551673  70.7868903   9.2341673  13.3601673  69.9178903
   9.2211673  12.6691673  70.2888903  17.2761673   5.1781673  72.0728903
  16.4211673   5.0561673  72.1988903  17.4291673   4.7831673  71.3098903
  17.1721673   5.1011673  71.9788903  11.7891673   5.8431673  70.6488903
  11.5341673   5.1241673  71.0708903  12.6101673   5.9591673  70.9188903
  11.8731673   5.7541673  70.7508903   9.7231673   7.0331673  73.8358903
  10.0461673   7.7191673  73.4038903   9.0191673   7.3561673  74.2378903
   9.6661673   7.1821673  73.8308903  12.8071673  15.4071673  64.7648903
  12.3561673  16.0501673  65.1438903  13.5151673  15.3281673  65.2698903
  12.8451673  15.4901673  64.8958903   9.5081673  10.4971673  67.6948903
   8.8141673  10.8991673  68.0378903  10.1851673  10.9301673  68.0338903
   9.5051673  10.6201673  67.7958903  14.8851673  13.0901673  74.2748903
  15.6611673  12.7001673  74.3578903  14.4161673  12.7541673  74.9298903
  14.9301673  12.9831673  74.3838903   2.5761673   4.0351673  70.0418903
   2.9511673   4.6541673  69.5548903   3.2501673   3.5611673  70.3268903
   2.7311673   4.0571673  70.0118903  15.9101673   5.1231673  59.7568903
  16.0131673   5.0651673  58.8928903  16.6511673   4.7911673  60.0748903
  16.0351673   5.0661673  59.6758903   9.8301673  12.0881673  60.8638903
   9.6251673  12.9211673  60.7048903   9.0551673  11.7061673  60.9858903
   9.6851673  12.1551673  60.8588903  15.0121673   5.2691673  69.1128903
  15.0101673   4.4061673  69.2368903  15.0791673   5.5931673  69.9198903
  15.0221673   5.1891673  69.2498903   5.1921673  12.3501673  57.2728903
   5.6331673  12.4301673  58.0208903   4.3871673  12.1341673  57.5308903
   5.1381673  12.3301673  57.4218903   4.5111673   7.0011673  70.9258903
   4.1151673   7.7751673  71.0008903   4.1051673   6.6281673  70.2498903
   4.3931673   7.0601673  70.8368903  13.7871673   6.0551673  65.0398903
  14.4531673   6.5961673  65.1998903  13.4421673   6.3661673  64.3008903
  13.8341673   6.1811673  64.9548903  14.1001673  14.1211673  60.8468903
  13.9261673  13.4671673  61.3968903  14.8131673  13.8501673  60.4238903
  14.1801673  13.9841673  60.8658903   2.5211673  11.4201673  57.8738903
   2.2771673  11.1131673  58.6538903   2.4881673  10.7171673  57.3578903
   2.4801673  11.2711673  57.9128903   5.3401673   9.6651673  56.6168903
   4.5221673   9.3971673  56.7568903   5.3121673  10.5171673  56.8018903
   5.2151673   9.7521673  56.6648903  11.7751673  11.5741673  68.5378903
  11.9811673  11.8751673  69.3298903  11.7141673  12.2961673  68.0528903
  11.7961673  11.7251673  68.5828903  11.3091673  15.7881673  72.7838903
  10.5561673  15.7701673  72.3428903  11.4771673  16.6401673  72.8678903
  11.2231673  15.9111673  72.7308903   6.5461673   5.0551673  71.9538903
   6.2241673   4.4791673  71.3838903   6.1871673   5.8101673  71.7078903
   6.4461673   5.0811673  71.8338903  16.5871673  10.2131673  67.9958903
  16.5551673   9.3511673  67.8608903  15.8941673  10.5151673  67.5618903
  16.4801673  10.1301673  67.9118903   4.9811673  15.4111673  72.2018903
   5.0221673  15.5371673  73.0648903   5.6321673  14.8511673  72.0458903
   5.0831673  15.3471673  72.3068903  14.6921673  13.4731673  66.7928903
  15.2191673  13.3901673  66.1018903  14.3011673  12.6951673  66.8468903
  14.7121673  13.3461673  66.6988903   2.5741673  13.7941673  73.5618903
   3.1691673  14.2251673  74.0338903   2.2101673  14.4181673  73.0728903
   2.6081673  13.9501673  73.5588903  10.5651673   4.7251673  63.4938903
  11.1161673   4.1181673  63.7938903  10.1401673   4.9881673  64.2088903
  10.5841673   4.6741673  63.6428903  12.5351673   6.5561673  60.0558903
  12.6031673   5.7061673  60.2368903  11.7121673   6.6421673  59.7778903
  12.4231673   6.4431673  60.0418903   2.2871673  15.0501673  59.2658903
   2.1421673  15.2061673  58.4198903   3.1531673  15.1291673  59.3438903
   2.3941673  15.0851673  59.1528903   6.4541673   7.4471673  58.9938903
   6.5541673   7.5861673  58.1388903   7.2721673   7.3871673  59.2898903
   6.5891673   7.4581673  58.9108903  15.6141673  15.5111673  56.4738903
  16.2511673  15.3771673  57.0548903  15.2731673  14.7171673  56.3568903
  15.6581673  15.3741673  56.5418903  15.8091673   7.9291673  73.2068903
  16.4431673   7.7591673  73.7808903  16.2261673   8.3321673  72.5548903
  15.9641673   7.9641673  73.1958903  11.6891673  11.7761673  58.7958903
  11.4381673  11.6481673  59.6218903  11.3721673  11.0811673  58.3748903
  11.6051673  11.6551673  58.8558903  16.4341673   2.4931673  73.9448903
  16.2381673   3.1371673  74.4998903  15.7121673   2.0031673  73.9368903
  16.2991673   2.5161673  74.0258903  16.3331673   3.4341673  66.9158903
  15.5001673   3.6841673  66.8438903  16.2771673   2.5941673  67.1448903
  16.2021673   3.3471673  66.9388903  13.2201673   8.0401673  74.5618903
  14.0911673   8.0041673  74.5258903  13.0011673   8.4601673  73.8298903
  13.3171673   8.0961673  74.4488903   2.9741673  13.8651673  65.7428903
   2.8951673  13.0551673  65.4268903   2.5301673  14.3521673  65.1708903
   2.8971673  13.8171673  65.6118903   8.5751673   9.9841673  58.2258903
   9.2921673   9.6371673  57.8698903   8.5411673  10.7841673  57.8778903
   8.6761673  10.0511673  58.1218903   9.7931673   5.5411673  47.1356493
   9.2691673   6.1371673  47.4986493  10.1901673   5.1731673  47.8196493
   9.7741673   5.5751673  47.2906493  15.9371673  12.9821673  40.1066493
  16.6381673  12.4631673  40.1026493  15.3501673  12.5371673  39.6376493
  15.9541673  12.8391673  40.0366493   2.5441673   8.7361673  37.7706493
   2.1521673   8.3651673  37.0846493   2.4641673   8.1381673  38.3996493
   2.4741673   8.5931673  37.7616493  12.4641673   6.6081673  43.8116493
  12.5441673   6.6121673  42.9426493  11.8801673   5.9761673  43.9606493
  12.3891673   6.5151673  43.7056493   6.1761673   9.9411673  53.9136493
   5.9401673   9.9381673  54.7536493   5.4281673   9.7931673  53.4896493
   6.0301673   9.9181673  53.9746493   6.1581673  13.1331673  51.1766493
   6.2961673  13.8931673  50.7696493   6.9491673  12.7681673  51.2036493
   6.2951673  13.1921673  51.1206493   3.0491673   5.0371673  43.0716493
   3.8661673   4.8501673  43.3146493   2.5721673   4.4231673  43.4676493
   3.0991673   4.9191673  43.1666493   7.2531673  11.0181673  45.6816493
   7.6011673  10.2191673  45.7116493   7.9181673  11.5221673  45.4266493
   7.4031673  10.9741673  45.6486493   7.3101673  10.4671673  41.8926493
   7.6411673   9.8231673  42.3786493   7.5501673  10.2561673  41.0816493
   7.3941673  10.3411673  41.8446493   9.2781673   4.5981673  53.2316493
   8.4301673   4.4991673  53.0536493   9.3071673   5.3431673  53.6856493
   9.1571673   4.6941673  53.2726493   5.2541673  12.2521673  41.4416493
   4.6751673  11.9771673  42.0336493   5.8781673  11.6431673  41.4666493
   5.2611673  12.1221673  41.5326493  11.3971673  14.5401673  38.9636493
  12.1241673  15.0121673  39.0656493  11.6261673  13.7461673  39.2436493
  11.5391673  14.4931673  39.0206493   9.5651673  14.9321673  40.9536493
   9.7791673  15.4591673  41.6156493  10.3321673  14.7581673  40.5746493
   9.7101673  14.9841673  40.9956493  12.0041673  14.9421673  49.2586493
  12.7481673  15.3981673  49.2486493  11.8831673  14.7281673  48.4216493
  12.0961673  14.9781673  49.1336493   1.7771673  11.5651673  45.3926493
   2.2001673  11.2091673  44.7186493   2.1011673  11.1431673  46.0846493
   1.8871673  11.4501673  45.3956493   5.0081673  14.4171673  44.6886493
   5.8521673  14.5211673  44.4936493   4.7111673  15.2351673  44.7566493
   5.0891673  14.5531673  44.6696493   8.8151673   3.8141673  42.7756493
   9.1021673   3.5821673  41.9856493   9.5471673   3.8931673  43.2446493
   8.9651673   3.7911673  42.7286493   9.5371673   4.1531673  37.8966493
   9.8181673   4.9411673  38.1456493   8.7611673   4.3181673  37.5336493
   9.4641673   4.2941673  37.8796493  13.5781673  16.1271673  39.3636493
  14.2431673  15.9791673  38.8186493  13.9381673  16.0441673  40.1536493
  13.7301673  16.0931673  39.3996493   4.0061673  15.6361673  50.4286493
   4.2981673  15.5691673  51.2486493   3.3801673  15.0311673  50.3836493
   3.9571673  15.5371673  50.5436493  11.2581673  12.1271673  52.9626493
  11.2241673  12.5091673  53.7466493  12.1121673  12.0851673  52.7916493
  11.3791673  12.1771673  53.0536493   8.3961673  12.3241673  37.7126493
   8.2151673  12.8691673  38.3696493   9.1621673  12.6141673  37.4116493
   8.4821673  12.4481673  37.7656493   9.1611673   2.5961673  40.0806493
   8.6531673   1.9341673  39.8266493   9.2131673   3.1001673  39.3706493
   9.0941673   2.5731673  39.9386493   9.7101673  15.2911673  50.4606493
  10.4781673  15.2111673  50.0546493   9.1271673  15.1701673  49.8226493
   9.7371673  15.2611673  50.3066493  15.9871673  15.8941673  43.3616493
  15.5321673  16.6111673  43.5626493  15.3731673  15.3231673  43.1196493
  15.8291673  15.9161673  43.3556493   7.7591673   1.9041673  44.4936493
   7.8331673   2.4721673  43.8356493   7.8801673   2.3961673  45.2036493
   7.7871673   2.0611673  44.5016493  12.9841673  11.7391673  42.9056493
  13.6851673  11.2571673  43.0946493  12.3241673  11.1701673  42.9506493
  12.9901673  11.5841673  42.9396493   3.3601673  12.6491673  52.1176493
   4.2011673  12.7121673  51.8956493   3.3231673  13.0461673  52.8936493
   3.4791673  12.7171673  52.1996493   5.3231673   8.1601673  46.8666493
   5.4951673   7.9501673  47.6956493   4.6681673   7.6261673  46.6506493
   5.2521673   8.0501673  46.9576493   6.0731673   8.0981673  49.4566493
   6.1261673   8.9451673  49.6586493   5.7881673   7.7281673  50.1936493
   6.0391673   8.1681673  49.5946493  12.2501673   8.7931673  48.5866493
  11.7361673   8.3811673  49.1576493  12.1241673   9.6371673  48.7676493
  12.1561673   8.8571673  48.6976493  15.2711673   2.2541673  51.5256493
  16.0431673   2.0291673  51.8626493  14.7961673   2.4711673  52.2256493
  15.3151673   2.2531673  51.6786493  15.5031673   9.2321673  38.7136493
  15.6221673   8.9451673  39.5286493  16.3101673   9.2531673  38.3836493
  15.6391673   9.1931673  38.7856493   2.6391673   8.9641673  44.0446493
   3.4901673   8.8841673  43.8716493   2.2821673   8.2821673  43.6326493
   2.7121673   8.8511673  43.9576493  17.7371673  13.7411673  52.9676493
  17.0551673  14.0511673  52.5206493  17.3681673  13.2831673  53.6126493
  17.5811673  13.7191673  52.9966493  13.3981673   5.7691673  38.2986493
  13.1781673   6.5001673  37.8766493  12.9501673   5.8201673  39.0456493
  13.2991673   5.8841673  38.3466493   5.0071673   8.9711673  42.2796493
   5.7201673   9.4661673  42.3696493   5.2291673   8.4041673  41.6536493
   5.1451673   8.9601673  42.2006493   6.8101673   4.3241673  55.6956493
   6.3261673   4.9011673  56.1376493   6.7821673   4.6191673  54.8746493
   6.7341673   4.4531673  55.6396493  17.9081673   5.0081673  50.3076493
  18.1231673   4.2081673  50.0316493  17.0581673   5.0681673  50.1186493
  17.8141673   4.8991673  50.2386493   9.5301673  12.6741673  44.6066493
   9.0071673  13.3081673  44.3136493   9.8401673  12.3101673  43.8776493
   9.4981673  12.7141673  44.4556493   3.6051673  10.4621673  47.3666493
   4.0721673  10.7511673  48.0446493   4.1771673   9.9841673  46.9126493
   3.7591673  10.4341673  47.3996493  15.5711673  14.1231673  51.0576493
  14.9001673  14.6371673  51.2756493  15.6341673  14.2231673  50.1936493
  15.4811673  14.2141673  50.9626493   4.2551673  11.6481673  44.1926493
   4.3811673  12.4911673  44.3796493   4.9231673  11.2491673  44.5886493
   4.3731673  11.7141673  44.2786493   2.3851673   5.1311673  54.0546493
   1.8491673   4.6251673  54.5226493   2.4051673   4.7411673  53.2746493
   2.3081673   4.9981673  54.0086493   2.8701673   4.5281673  39.1946493
   2.7421673   4.0801673  39.9326493   2.2881673   4.1861673  38.6426493
   2.7651673   4.4111673  39.2226493   3.0371673   6.3581673  45.7936493
   2.2561673   6.2991673  45.4106493   3.1091673   5.6061673  46.2306493
   2.9321673   6.2391673  45.8016493   3.4671673   6.0951673  49.2616493
   3.4921673   5.4201673  48.7106493   2.8211673   6.5911673  48.9496493
   3.3761673   6.0681673  49.1346493  13.3621673   3.8081673  47.6576493
  12.7001673   4.1361673  48.1206493  13.5491673   4.4421673  47.0886493
  13.2921673   3.9501673  47.6416493   7.5671673  14.8721673  48.6536493
   7.2901673  14.2311673  48.1306493   7.3591673  15.5981673  48.2156493
   7.4961673  14.8851673  48.5116493  11.5551673   1.7771673  41.1686493
  12.0451673   2.4941673  41.0916493  10.7651673   2.0381673  40.9056493
  11.5111673   1.9211673  41.1186493  12.8691673   9.6551673  53.0786493
  13.3531673  10.3731673  53.1766493  13.2631673   9.2281673  52.4276493
  12.9991673   9.6981673  52.9966493   7.1651673  12.5001673  54.2556493
   7.5191673  12.3221673  55.0326493   6.7291673  11.7711673  54.0566493
   7.1531673  12.3661673  54.3416493   8.1371673   3.2471673  46.8936493
   8.6171673   3.9461673  47.1016493   8.5101673   2.6001673  47.3446493
   8.2631673   3.2551673  46.9906493  10.3261673   6.4161673  39.1676493
  10.3181673   7.1381673  38.6776493   9.6871673   6.5511673  39.7446493
  10.2311673   6.5431673  39.1806493  15.2981673  10.2861673  43.1486493
  15.6541673   9.9361673  43.8636493  15.2901673   9.6251673  42.5786493
  15.3501673  10.1361673  43.1696493  11.3431673  13.3521673  46.9926493
  10.7401673  13.0561673  46.4356493  11.8881673  13.8041673  46.4836493
  11.3341673  13.3751673  46.8346493  11.3561673  10.2031673  46.3926493
  10.5591673  10.4271673  46.6666493  11.6141673   9.6091673  46.9776493
  11.2761673  10.1481673  46.5196493   5.2481673  15.0151673  40.8406493
   5.1011673  14.2391673  41.2116493   5.9371673  14.8681673  40.3256493
   5.3281673  14.8781673  40.8196493   7.5401673  14.5311673  39.2426493
   8.1621673  14.6941673  39.8326493   7.5761673  15.2221673  38.7106493
   7.6371673  14.6571673  39.2516493  14.6161673   8.2011673  51.2386493
  14.6711673   8.3261673  50.3766493  15.3691673   8.5211673  51.5406493
  14.7351673   8.2661673  51.1556493  10.8071673  13.5501673  55.5156493
  10.9711673  13.8331673  56.3246493  11.0701673  14.2111673  55.0106493
  10.8701673  13.6901673  55.5606493   2.0411673   7.0651673  40.0716493
   2.3651673   6.2861673  39.8496493   2.6871673   7.4331673  40.5266493
   2.1841673   7.0041673  40.1056493  10.3471673   8.0071673  50.8386493
  10.1921673   8.6171673  51.4426493  10.8811673   7.4491673  51.2446493
  10.4031673   8.0151673  50.9876493   8.7311673   6.4071673  41.4966493
   8.7901673   7.0571673  42.0756493   8.5421673   5.7111673  41.9876493
   8.7121673   6.4001673  41.6546493  13.9571673  10.7361673  47.3656493
  13.4781673  11.0341673  46.6996493  13.6011673   9.9601673  47.5436493
  13.8341673  10.6651673  47.2936493   7.9541673   8.4541673  45.9276493
   7.1071673   8.2601673  46.0086493   8.2781673   8.2891673  46.7206493
   7.8761673   8.4011673  46.0566493   4.7061673  15.1841673  36.8136493
   5.1451673  14.4871673  37.1016493   4.9131673  15.8081673  37.3866493
   4.8021673  15.1731673  36.9406493   5.0321673   3.3181673  44.9786493
   5.8781673   3.1281673  45.0766493   4.6621673   2.5411673  44.8406493
   5.1021673   3.1751673  44.9726493  17.6491673  14.9021673  39.3056493
  18.3431673  14.4351673  39.0576493  17.1101673  14.3041673  39.6426493
  17.6721673  14.7441673  39.3186493  14.8881673   7.6781673  48.4846493
  14.8811673   6.9021673  48.8826493  14.0471673   7.9121673  48.4776493
  14.7631673   7.5981673  48.5426493   4.3781673   6.0901673  37.1196493
   3.7681673   5.6851673  37.5936493   3.9921673   6.2081673  36.3466493
   4.2311673   6.0471673  37.0756493  16.1441673   7.7491673  45.9216493
  15.8581673   8.1501673  46.6416493  17.0041673   7.6871673  46.0486493
  16.2291673   7.7991673  46.0466493   5.8331673   4.5511673  39.8296493
   6.1051673   5.3771673  39.8966493   4.9701673   4.6261673  39.7336493
   5.7461673   4.6841673  39.8246493  17.2751673  13.3821673  46.4506493
  17.5651673  13.6391673  45.6696493  17.9701673  13.4781673  46.9696493
  17.4211673  13.4341673  46.4116493  12.2981673   5.2421673  54.5376493
  12.3711673   5.3461673  55.4006493  11.6641673   5.8001673  54.3166493
  12.2151673   5.3401673  54.6326493  14.5661673   5.5611673  52.9026493
  14.8851673   6.3471673  53.1056493  14.1961673   5.2911673  53.6456493
  14.5591673   5.6371673  53.0426493  13.8801673  11.9851673  38.4326493
  14.2141673  11.1791673  38.4676493  13.1251673  11.9131673  38.8626493
  13.8181673  11.8551673  38.5016493  14.3621673   3.8191673  44.0916493
  13.6171673   3.4961673  44.4096493  14.3641673   4.6451673  44.3716493
  14.2521673   3.8931673  44.1796493  17.2641673   6.1031673  55.6376493
  17.2121673   5.7621673  54.8366493  18.0011673   6.5701673  55.6156493
  17.3651673   6.1221673  55.5156493  16.8021673   9.7791673  51.8436493
  17.4301673   9.2301673  51.5876493  16.7411673  10.3441673  51.1816493
  16.8861673   9.7821673  51.7076493  11.2541673   9.8601673  37.8356493
  11.9381673   9.3461673  37.6666493  10.8371673   9.9061673  37.0706493
  11.2931673   9.7911673  37.6976493   5.9361673  11.0101673  49.1396493
   5.6381673  11.6021673  49.7066493   5.9911673  11.4521673  48.3906493
   5.9001673  11.1631673  49.1126493   3.9151673   9.9601673  52.5376493
   3.1091673   9.6701673  52.7046493   3.8261673  10.8281673  52.5436493
   3.7831673  10.0451673  52.5626493   8.4521673   7.4331673  48.6306493
   8.9281673   7.8071673  49.2586493   7.6291673   7.5671673  48.8896493
   8.4011673   7.5081673  48.7616493   5.1621673   3.0361673  51.3716493
   5.3231673   2.2921673  51.7986493   5.1171673   2.7871673  50.5366493
   5.1791673   2.8891673  51.3116493   7.7161673  14.8261673  43.8586493
   8.2621673  15.5051673  43.9126493   7.3661673  14.9081673  43.0636493
   7.7451673  14.9391673  43.7486493   5.8991673  13.0541673  47.2476493
   5.2751673  13.6361673  47.0656493   6.1471673  12.7681673  46.4616493
   5.8431673  13.0981673  47.1046493  10.2081673   9.6881673  54.2366493
  10.9651673   9.9741673  53.9106493   9.6611673   9.7401673  53.5586493
  10.2391673   9.7381673  54.0876493  14.1171673  12.2381673  52.7406493
  14.4631673  12.5081673  53.4946493  14.4111673  12.8201673  52.1606493
  14.2121673  12.3641673  52.7666493  15.9801673   4.3841673  38.0796493
  16.3581673   5.0611673  37.6796493  15.1381673   4.6081673  38.1106493
  15.9111673   4.5171673  38.0246493   7.4931673   7.8301673  37.1626493
   6.6881673   7.6531673  36.8776493   7.4601673   8.6811673  37.3546493
   7.3691673   7.9291673  37.1496493   3.4231673   3.8971673  47.3126493
   3.8631673   3.7941673  46.5666493   3.9681673   3.5841673  47.9176493
   3.5681673   3.8361673  47.2916493  11.4391673   2.9991673  52.9046493
  10.7911673   3.4691673  53.2526493  12.0041673   2.9101673  53.5636493
  11.4271673   3.0551673  53.0536493  11.1271673   4.5361673  49.2026493
  11.4291673   4.9561673  49.9056493  11.1631673   3.6961673  49.4346493
  11.1771673   4.4741673  49.3406493   8.5521673  14.7031673  53.1276493
   9.0301673  14.1031673  52.7116493   8.2011673  14.2601673  53.7926493
   8.5711673  14.5491673  53.1646493  13.6751673   3.9831673  41.4546493
  13.8821673   3.7821673  42.2786493  14.4311673   4.2511673  41.1126493
  13.8171673   3.9931673  41.5256493  15.1401673   8.0101673  41.3086493
  15.6161673   7.2811673  41.2606493  14.3191673   7.7241673  41.2326493
  15.0891673   7.8601673  41.2896493   8.6111673   9.9221673  52.1476493
   7.8161673   9.8581673  52.4986493   8.6821673  10.7691673  51.9526493
   8.5041673  10.0371673  52.1706493   4.4411673  16.1291673  47.4646493
   4.4521673  16.1881673  48.3346493   4.0161673  15.3821673  47.3146493
   4.3801673  16.0271673  47.5706493  11.3561673   9.1771673  43.6636493
  11.4321673   9.5181673  44.4626493  11.5251673   8.3301673  43.7846493
  11.3921673   9.1021673  43.7996493   8.8781673   8.4511673  43.2286493
   8.5801673   8.1361673  43.9856493   9.5731673   8.9241673  43.4636493
   8.9371673   8.4741673  43.3756493   9.1001673  12.5691673  51.2556493
   9.7871673  12.4551673  51.7806493   9.2341673  13.3601673  50.9116493
   9.2211673  12.6691673  51.2826493  17.2761673   5.1781673  53.0666493
  16.4211673   5.0561673  53.1926493  17.4291673   4.7831673  52.3036493
  17.1721673   5.1011673  52.9726493  11.7891673   5.8431673  51.6426493
  11.5341673   5.1241673  52.0646493  12.6101673   5.9591673  51.9126493
  11.8731673   5.7541673  51.7446493   9.7231673   7.0331673  54.8296493
  10.0461673   7.7191673  54.3976493   9.0191673   7.3561673  55.2316493
   9.6661673   7.1821673  54.8246493  12.8071673  15.4071673  45.7586493
  12.3561673  16.0501673  46.1376493  13.5151673  15.3281673  46.2636493
  12.8451673  15.4901673  45.8896493   9.5081673  10.4971673  48.6886493
   8.8141673  10.8991673  49.0316493  10.1851673  10.9301673  49.0276493
   9.5051673  10.6201673  48.7896493  14.8851673  13.0901673  55.2686493
  15.6611673  12.7001673  55.3516493  14.4161673  12.7541673  55.9236493
  14.9301673  12.9831673  55.3776493   2.5761673   4.0351673  51.0356493
   2.9511673   4.6541673  50.5486493   3.2501673   3.5611673  51.3206493
   2.7311673   4.0571673  51.0056493  15.9101673   5.1231673  40.7506493
  16.0131673   5.0651673  39.8866493  16.6511673   4.7911673  41.0686493
  16.0351673   5.0661673  40.6696493   9.8301673  12.0881673  41.8576493
   9.6251673  12.9211673  41.6986493   9.0551673  11.7061673  41.9796493
   9.6851673  12.1551673  41.8526493  15.0121673   5.2691673  50.1066493
  15.0101673   4.4061673  50.2306493  15.0791673   5.5931673  50.9136493
  15.0221673   5.1891673  50.2436493   5.1921673  12.3501673  38.2666493
   5.6331673  12.4301673  39.0146493   4.3871673  12.1341673  38.5246493
   5.1381673  12.3301673  38.4156493   4.5111673   7.0011673  51.9196493
   4.1151673   7.7751673  51.9946493   4.1051673   6.6281673  51.2436493
   4.3931673   7.0601673  51.8306493  13.7871673   6.0551673  46.0336493
  14.4531673   6.5961673  46.1936493  13.4421673   6.3661673  45.2946493
  13.8341673   6.1811673  45.9486493  14.1001673  14.1211673  41.8406493
  13.9261673  13.4671673  42.3906493  14.8131673  13.8501673  41.4176493
  14.1801673  13.9841673  41.8596493   2.5211673  11.4201673  38.8676493
   2.2771673  11.1131673  39.6476493   2.4881673  10.7171673  38.3516493
   2.4801673  11.2711673  38.9066493   5.3401673   9.6651673  37.6106493
   4.5221673   9.3971673  37.7506493   5.3121673  10.5171673  37.7956493
   5.2151673   9.7521673  37.6586493  11.7751673  11.5741673  49.5316493
  11.9811673  11.8751673  50.3236493  11.7141673  12.2961673  49.0466493
  11.7961673  11.7251673  49.5766493  11.3091673  15.7881673  53.7776493
  10.5561673  15.7701673  53.3366493  11.4771673  16.6401673  53.8616493
  11.2231673  15.9111673  53.7246493   6.5461673   5.0551673  52.9476493
   6.2241673   4.4791673  52.3776493   6.1871673   5.8101673  52.7016493
   6.4461673   5.0811673  52.8276493  16.5871673  10.2131673  48.9896493
  16.5551673   9.3511673  48.8546493  15.8941673  10.5151673  48.5556493
  16.4801673  10.1301673  48.9056493   4.9811673  15.4111673  53.1956493
   5.0221673  15.5371673  54.0586493   5.6321673  14.8511673  53.0396493
   5.0831673  15.3471673  53.3006493  14.6921673  13.4731673  47.7866493
  15.2191673  13.3901673  47.0956493  14.3011673  12.6951673  47.8406493
  14.7121673  13.3461673  47.6926493   2.5741673  13.7941673  54.5556493
   3.1691673  14.2251673  55.0276493   2.2101673  14.4181673  54.0666493
   2.6081673  13.9501673  54.5526493  10.5651673   4.7251673  44.4876493
  11.1161673   4.1181673  44.7876493  10.1401673   4.9881673  45.2026493
  10.5841673   4.6741673  44.6366493  12.5351673   6.5561673  41.0496493
  12.6031673   5.7061673  41.2306493  11.7121673   6.6421673  40.7716493
  12.4231673   6.4431673  41.0356493   2.2871673  15.0501673  40.2596493
   2.1421673  15.2061673  39.4136493   3.1531673  15.1291673  40.3376493
   2.3941673  15.0851673  40.1466493   6.4541673   7.4471673  39.9876493
   6.5541673   7.5861673  39.1326493   7.2721673   7.3871673  40.2836493
   6.5891673   7.4581673  39.9046493  15.6141673  15.5111673  37.4676493
  16.2511673  15.3771673  38.0486493  15.2731673  14.7171673  37.3506493
  15.6581673  15.3741673  37.5356493  15.8091673   7.9291673  54.2006493
  16.4431673   7.7591673  54.7746493  16.2261673   8.3321673  53.5486493
  15.9641673   7.9641673  54.1896493  11.6891673  11.7761673  39.7896493
  11.4381673  11.6481673  40.6156493  11.3721673  11.0811673  39.3686493
  11.6051673  11.6551673  39.8496493  16.4341673   2.4931673  54.9386493
  16.2381673   3.1371673  55.4936493  15.7121673   2.0031673  54.9306493
  16.2991673   2.5161673  55.0196493  16.3331673   3.4341673  47.9096493
  15.5001673   3.6841673  47.8376493  16.2771673   2.5941673  48.1386493
  16.2021673   3.3471673  47.9326493  13.2201673   8.0401673  55.5556493
  14.0911673   8.0041673  55.5196493  13.0011673   8.4601673  54.8236493
  13.3171673   8.0961673  55.4426493   2.9741673  13.8651673  46.7366493
   2.8951673  13.0551673  46.4206493   2.5301673  14.3521673  46.1646493
   2.8971673  13.8171673  46.6056493   8.5751673   9.9841673  39.2196493
   9.2921673   9.6371673  38.8636493   8.5411673  10.7841673  38.8716493
   8.6761673  10.0511673  39.1156493   9.7931673   5.5411673  28.1294083
   9.2691673   6.1371673  28.4924083  10.1901673   5.1731673  28.8134083
   9.7741673   5.5751673  28.2844083  15.9371673  12.9821673  21.1004083
  16.6381673  12.4631673  21.0964083  15.3501673  12.5371673  20.6314083
  15.9541673  12.8391673  21.0304083   2.5441673   8.7361673  18.7644083
   2.1521673   8.3651673  18.0784083   2.4641673   8.1381673  19.3934083
   2.4741673   8.5931673  18.7554083  12.4641673   6.6081673  24.8054083
  12.5441673   6.6121673  23.9364083  11.8801673   5.9761673  24.9544083
  12.3891673   6.5151673  24.6994083   6.1761673   9.9411673  34.9074083
   5.9401673   9.9381673  35.7474083   5.4281673   9.7931673  34.4834083
   6.0301673   9.9181673  34.9684083   6.1581673  13.1331673  32.1704083
   6.2961673  13.8931673  31.7634083   6.9491673  12.7681673  32.1974083
   6.2951673  13.1921673  32.1144083   3.0491673   5.0371673  24.0654083
   3.8661673   4.8501673  24.3084083   2.5721673   4.4231673  24.4614083
   3.0991673   4.9191673  24.1604083   7.2531673  11.0181673  26.6754083
   7.6011673  10.2191673  26.7054083   7.9181673  11.5221673  26.4204083
   7.4031673  10.9741673  26.6424083   7.3101673  10.4671673  22.8864083
   7.6411673   9.8231673  23.3724083   7.5501673  10.2561673  22.0754083
   7.3941673  10.3411673  22.8384083   9.2781673   4.5981673  34.2254083
   8.4301673   4.4991673  34.0474083   9.3071673   5.3431673  34.6794083
   9.1571673   4.6941673  34.2664083   5.2541673  12.2521673  22.4354083
   4.6751673  11.9771673  23.0274083   5.8781673  11.6431673  22.4604083
   5.2611673  12.1221673  22.5264083  11.3971673  14.5401673  19.9574083
  12.1241673  15.0121673  20.0594083  11.6261673  13.7461673  20.2374083
  11.5391673  14.4931673  20.0144083   9.5651673  14.9321673  21.9474083
   9.7791673  15.4591673  22.6094083  10.3321673  14.7581673  21.5684083
   9.7101673  14.9841673  21.9894083  12.0041673  14.9421673  30.2524083
  12.7481673  15.3981673  30.2424083  11.8831673  14.7281673  29.4154083
  12.0961673  14.9781673  30.1274083   1.7771673  11.5651673  26.3864083
   2.2001673  11.2091673  25.7124083   2.1011673  11.1431673  27.0784083
   1.8871673  11.4501673  26.3894083   5.0081673  14.4171673  25.6824083
   5.8521673  14.5211673  25.4874083   4.7111673  15.2351673  25.7504083
   5.0891673  14.5531673  25.6634083   8.8151673   3.8141673  23.7694083
   9.1021673   3.5821673  22.9794083   9.5471673   3.8931673  24.2384083
   8.9651673   3.7911673  23.7224083   9.5371673   4.1531673  18.8904083
   9.8181673   4.9411673  19.1394083   8.7611673   4.3181673  18.5274083
   9.4641673   4.2941673  18.8734083  13.5781673  16.1271673  20.3574083
  14.2431673  15.9791673  19.8124083  13.9381673  16.0441673  21.1474083
  13.7301673  16.0931673  20.3934083   4.0061673  15.6361673  31.4224083
   4.2981673  15.5691673  32.2424083   3.3801673  15.0311673  31.3774083
   3.9571673  15.5371673  31.5374083  11.2581673  12.1271673  33.9564083
  11.2241673  12.5091673  34.7404083  12.1121673  12.0851673  33.7854083
  11.3791673  12.1771673  34.0474083   8.3961673  12.3241673  18.7064083
   8.2151673  12.8691673  19.3634083   9.1621673  12.6141673  18.4054083
   8.4821673  12.4481673  18.7594083   9.1611673   2.5961673  21.0744083
   8.6531673   1.9341673  20.8204083   9.2131673   3.1001673  20.3644083
   9.0941673   2.5731673  20.9324083   9.7101673  15.2911673  31.4544083
  10.4781673  15.2111673  31.0484083   9.1271673  15.1701673  30.8164083
   9.7371673  15.2611673  31.3004083  15.9871673  15.8941673  24.3554083
  15.5321673  16.6111673  24.5564083  15.3731673  15.3231673  24.1134083
  15.8291673  15.9161673  24.3494083   7.7591673   1.9041673  25.4874083
   7.8331673   2.4721673  24.8294083   7.8801673   2.3961673  26.1974083
   7.7871673   2.0611673  25.4954083  12.9841673  11.7391673  23.8994083
  13.6851673  11.2571673  24.0884083  12.3241673  11.1701673  23.9444083
  12.9901673  11.5841673  23.9334083   3.3601673  12.6491673  33.1114083
   4.2011673  12.7121673  32.8894083   3.3231673  13.0461673  33.8874083
   3.4791673  12.7171673  33.1934083   5.3231673   8.1601673  27.8604083
   5.4951673   7.9501673  28.6894083   4.6681673   7.6261673  27.6444083
   5.2521673   8.0501673  27.9514083   6.0731673   8.0981673  30.4504083
   6.1261673   8.9451673  30.6524083   5.7881673   7.7281673  31.1874083
   6.0391673   8.1681673  30.5884083  12.2501673   8.7931673  29.5804083
  11.7361673   8.3811673  30.1514083  12.1241673   9.6371673  29.7614083
  12.1561673   8.8571673  29.6914083  15.2711673   2.2541673  32.5194083
  16.0431673   2.0291673  32.8564083  14.7961673   2.4711673  33.2194083
  15.3151673   2.2531673  32.6724083  15.5031673   9.2321673  19.7074083
  15.6221673   8.9451673  20.5224083  16.3101673   9.2531673  19.3774083
  15.6391673   9.1931673  19.7794083   2.6391673   8.9641673  25.0384083
   3.4901673   8.8841673  24.8654083   2.2821673   8.2821673  24.6264083
   2.7121673   8.8511673  24.9514083  17.7371673  13.7411673  33.9614083
  17.0551673  14.0511673  33.5144083  17.3681673  13.2831673  34.6064083
  17.5811673  13.7191673  33.9904083  13.3981673   5.7691673  19.2924083
  13.1781673   6.5001673  18.8704083  12.9501673   5.8201673  20.0394083
  13.2991673   5.8841673  19.3404083   5.0071673   8.9711673  23.2734083
   5.7201673   9.4661673  23.3634083   5.2291673   8.4041673  22.6474083
   5.1451673   8.9601673  23.1944083   6.8101673   4.3241673  36.6894083
   6.3261673   4.9011673  37.1314083   6.7821673   4.6191673  35.8684083
   6.7341673   4.4531673  36.6334083  17.9081673   5.0081673  31.3014083
  18.1231673   4.2081673  31.0254083  17.0581673   5.0681673  31.1124083
  17.8141673   4.8991673  31.2324083   9.5301673  12.6741673  25.6004083
   9.0071673  13.3081673  25.3074083   9.8401673  12.3101673  24.8714083
   9.4981673  12.7141673  25.4494083   3.6051673  10.4621673  28.3604083
   4.0721673  10.7511673  29.0384083   4.1771673   9.9841673  27.9064083
   3.7591673  10.4341673  28.3934083  15.5711673  14.1231673  32.0514083
  14.9001673  14.6371673  32.2694083  15.6341673  14.2231673  31.1874083
  15.4811673  14.2141673  31.9564083   4.2551673  11.6481673  25.1864083
   4.3811673  12.4911673  25.3734083   4.9231673  11.2491673  25.5824083
   4.3731673  11.7141673  25.2724083   2.3851673   5.1311673  35.0484083
   1.8491673   4.6251673  35.5164083   2.4051673   4.7411673  34.2684083
   2.3081673   4.9981673  35.0024083   2.8701673   4.5281673  20.1884083
   2.7421673   4.0801673  20.9264083   2.2881673   4.1861673  19.6364083
   2.7651673   4.4111673  20.2164083   3.0371673   6.3581673  26.7874083
   2.2561673   6.2991673  26.4044083   3.1091673   5.6061673  27.2244083
   2.9321673   6.2391673  26.7954083   3.4671673   6.0951673  30.2554083
   3.4921673   5.4201673  29.7044083   2.8211673   6.5911673  29.9434083
   3.3761673   6.0681673  30.1284083  13.3621673   3.8081673  28.6514083
  12.7001673   4.1361673  29.1144083  13.5491673   4.4421673  28.0824083
  13.2921673   3.9501673  28.6354083   7.5671673  14.8721673  29.6474083
   7.2901673  14.2311673  29.1244083   7.3591673  15.5981673  29.2094083
   7.4961673  14.8851673  29.5054083  11.5551673   1.7771673  22.1624083
  12.0451673   2.4941673  22.0854083  10.7651673   2.0381673  21.8994083
  11.5111673   1.9211673  22.1124083  12.8691673   9.6551673  34.0724083
  13.3531673  10.3731673  34.1704083  13.2631673   9.2281673  33.4214083
  12.9991673   9.6981673  33.9904083   7.1651673  12.5001673  35.2494083
   7.5191673  12.3221673  36.0264083   6.7291673  11.7711673  35.0504083
   7.1531673  12.3661673  35.3354083   8.1371673   3.2471673  27.8874083
   8.6171673   3.9461673  28.0954083   8.5101673   2.6001673  28.3384083
   8.2631673   3.2551673  27.9844083  10.3261673   6.4161673  20.1614083
  10.3181673   7.1381673  19.6714083   9.6871673   6.5511673  20.7384083
  10.2311673   6.5431673  20.1744083  15.2981673  10.2861673  24.1424083
  15.6541673   9.9361673  24.8574083  15.2901673   9.6251673  23.5724083
  15.3501673  10.1361673  24.1634083  11.3431673  13.3521673  27.9864083
  10.7401673  13.0561673  27.4294083  11.8881673  13.8041673  27.4774083
  11.3341673  13.3751673  27.8284083  11.3561673  10.2031673  27.3864083
  10.5591673  10.4271673  27.6604083  11.6141673   9.6091673  27.9714083
  11.2761673  10.1481673  27.5134083   5.2481673  15.0151673  21.8344083
   5.1011673  14.2391673  22.2054083   5.9371673  14.8681673  21.3194083
   5.3281673  14.8781673  21.8134083   7.5401673  14.5311673  20.2364083
   8.1621673  14.6941673  20.8264083   7.5761673  15.2221673  19.7044083
   7.6371673  14.6571673  20.2454083  14.6161673   8.2011673  32.2324083
  14.6711673   8.3261673  31.3704083  15.3691673   8.5211673  32.5344083
  14.7351673   8.2661673  32.1494083  10.8071673  13.5501673  36.5094083
  10.9711673  13.8331673  37.3184083  11.0701673  14.2111673  36.0044083
  10.8701673  13.6901673  36.5544083   2.0411673   7.0651673  21.0654083
   2.3651673   6.2861673  20.8434083   2.6871673   7.4331673  21.5204083
   2.1841673   7.0041673  21.0994083  10.3471673   8.0071673  31.8324083
  10.1921673   8.6171673  32.4364083  10.8811673   7.4491673  32.2384083
  10.4031673   8.0151673  31.9814083   8.7311673   6.4071673  22.4904083
   8.7901673   7.0571673  23.0694083   8.5421673   5.7111673  22.9814083
   8.7121673   6.4001673  22.6484083  13.9571673  10.7361673  28.3594083
  13.4781673  11.0341673  27.6934083  13.6011673   9.9601673  28.5374083
  13.8341673  10.6651673  28.2874083   7.9541673   8.4541673  26.9214083
   7.1071673   8.2601673  27.0024083   8.2781673   8.2891673  27.7144083
   7.8761673   8.4011673  27.0504083   4.7061673  15.1841673  17.8074083
   5.1451673  14.4871673  18.0954083   4.9131673  15.8081673  18.3804083
   4.8021673  15.1731673  17.9344083   5.0321673   3.3181673  25.9724083
   5.8781673   3.1281673  26.0704083   4.6621673   2.5411673  25.8344083
   5.1021673   3.1751673  25.9664083  17.6491673  14.9021673  20.2994083
  18.3431673  14.4351673  20.0514083  17.1101673  14.3041673  20.6364083
  17.6721673  14.7441673  20.3124083  14.8881673   7.6781673  29.4784083
  14.8811673   6.9021673  29.8764083  14.0471673   7.9121673  29.4714083
  14.7631673   7.5981673  29.5364083   4.3781673   6.0901673  18.1134083
   3.7681673   5.6851673  18.5874083   3.9921673   6.2081673  17.3404083
   4.2311673   6.0471673  18.0694083  16.1441673   7.7491673  26.9154083
  15.8581673   8.1501673  27.6354083  17.0041673   7.6871673  27.0424083
  16.2291673   7.7991673  27.0404083   5.8331673   4.5511673  20.8234083
   6.1051673   5.3771673  20.8904083   4.9701673   4.6261673  20.7274083
   5.7461673   4.6841673  20.8184083  17.2751673  13.3821673  27.4444083
  17.5651673  13.6391673  26.6634083  17.9701673  13.4781673  27.9634083
  17.4211673  13.4341673  27.4054083  12.2981673   5.2421673  35.5314083
  12.3711673   5.3461673  36.3944083  11.6641673   5.8001673  35.3104083
  12.2151673   5.3401673  35.6264083  14.5661673   5.5611673  33.8964083
  14.8851673   6.3471673  34.0994083  14.1961673   5.2911673  34.6394083
  14.5591673   5.6371673  34.0364083  13.8801673  11.9851673  19.4264083
  14.2141673  11.1791673  19.4614083  13.1251673  11.9131673  19.8564083
  13.8181673  11.8551673  19.4954083  14.3621673   3.8191673  25.0854083
  13.6171673   3.4961673  25.4034083  14.3641673   4.6451673  25.3654083
  14.2521673   3.8931673  25.1734083  17.2641673   6.1031673  36.6314083
  17.2121673   5.7621673  35.8304083  18.0011673   6.5701673  36.6094083
  17.3651673   6.1221673  36.5094083  16.8021673   9.7791673  32.8374083
  17.4301673   9.2301673  32.5814083  16.7411673  10.3441673  32.1754083
  16.8861673   9.7821673  32.7014083  11.2541673   9.8601673  18.8294083
  11.9381673   9.3461673  18.6604083  10.8371673   9.9061673  18.0644083
  11.2931673   9.7911673  18.6914083   5.9361673  11.0101673  30.1334083
   5.6381673  11.6021673  30.7004083   5.9911673  11.4521673  29.3844083
   5.9001673  11.1631673  30.1064083   3.9151673   9.9601673  33.5314083
   3.1091673   9.6701673  33.6984083   3.8261673  10.8281673  33.5374083
   3.7831673  10.0451673  33.5564083   8.4521673   7.4331673  29.6244083
   8.9281673   7.8071673  30.2524083   7.6291673   7.5671673  29.8834083
   8.4011673   7.5081673  29.7554083   5.1621673   3.0361673  32.3654083
   5.3231673   2.2921673  32.7924083   5.1171673   2.7871673  31.5304083
   5.1791673   2.8891673  32.3054083   7.7161673  14.8261673  24.8524083
   8.2621673  15.5051673  24.9064083   7.3661673  14.9081673  24.0574083
   7.7451673  14.9391673  24.7424083   5.8991673  13.0541673  28.2414083
   5.2751673  13.6361673  28.0594083   6.1471673  12.7681673  27.4554083
   5.8431673  13.0981673  28.0984083  10.2081673   9.6881673  35.2304083
  10.9651673   9.9741673  34.9044083   9.6611673   9.7401673  34.5524083
  10.2391673   9.7381673  35.0814083  14.1171673  12.2381673  33.7344083
  14.4631673  12.5081673  34.4884083  14.4111673  12.8201673  33.1544083
  14.2121673  12.3641673  33.7604083  15.9801673   4.3841673  19.0734083
  16.3581673   5.0611673  18.6734083  15.1381673   4.6081673  19.1044083
  15.9111673   4.5171673  19.0184083   7.4931673   7.8301673  18.1564083
   6.6881673   7.6531673  17.8714083   7.4601673   8.6811673  18.3484083
   7.3691673   7.9291673  18.1434083   3.4231673   3.8971673  28.3064083
   3.8631673   3.7941673  27.5604083   3.9681673   3.5841673  28.9114083
   3.5681673   3.8361673  28.2854083  11.4391673   2.9991673  33.8984083
  10.7911673   3.4691673  34.2464083  12.0041673   2.9101673  34.5574083
  11.4271673   3.0551673  34.0474083  11.1271673   4.5361673  30.1964083
  11.4291673   4.9561673  30.8994083  11.1631673   3.6961673  30.4284083
  11.1771673   4.4741673  30.3344083   8.5521673  14.7031673  34.1214083
   9.0301673  14.1031673  33.7054083   8.2011673  14.2601673  34.7864083
   8.5711673  14.5491673  34.1584083  13.6751673   3.9831673  22.4484083
  13.8821673   3.7821673  23.2724083  14.4311673   4.2511673  22.1064083
  13.8171673   3.9931673  22.5194083  15.1401673   8.0101673  22.3024083
  15.6161673   7.2811673  22.2544083  14.3191673   7.7241673  22.2264083
  15.0891673   7.8601673  22.2834083   8.6111673   9.9221673  33.1414083
   7.8161673   9.8581673  33.4924083   8.6821673  10.7691673  32.9464083
   8.5041673  10.0371673  33.1644083   4.4411673  16.1291673  28.4584083
   4.4521673  16.1881673  29.3284083   4.0161673  15.3821673  28.3084083
   4.3801673  16.0271673  28.5644083  11.3561673   9.1771673  24.6574083
  11.4321673   9.5181673  25.4564083  11.5251673   8.3301673  24.7784083
  11.3921673   9.1021673  24.7934083   8.8781673   8.4511673  24.2224083
   8.5801673   8.1361673  24.9794083   9.5731673   8.9241673  24.4574083
   8.9371673   8.4741673  24.3694083   9.1001673  12.5691673  32.2494083
   9.7871673  12.4551673  32.7744083   9.2341673  13.3601673  31.9054083
   9.2211673  12.6691673  32.2764083  17.2761673   5.1781673  34.0604083
  16.4211673   5.0561673  34.1864083  17.4291673   4.7831673  33.2974083
  17.1721673   5.1011673  33.9664083  11.7891673   5.8431673  32.6364083
  11.5341673   5.1241673  33.0584083  12.6101673   5.9591673  32.9064083
  11.8731673   5.7541673  32.7384083   9.7231673   7.0331673  35.8234083
  10.0461673   7.7191673  35.3914083   9.0191673   7.3561673  36.2254083
   9.6661673   7.1821673  35.8184083  12.8071673  15.4071673  26.7524083
  12.3561673  16.0501673  27.1314083  13.5151673  15.3281673  27.2574083
  12.8451673  15.4901673  26.8834083   9.5081673  10.4971673  29.6824083
   8.8141673  10.8991673  30.0254083  10.1851673  10.9301673  30.0214083
   9.5051673  10.6201673  29.7834083  14.8851673  13.0901673  36.2624083
  15.6611673  12.7001673  36.3454083  14.4161673  12.7541673  36.9174083
  14.9301673  12.9831673  36.3714083   2.5761673   4.0351673  32.0294083
   2.9511673   4.6541673  31.5424083   3.2501673   3.5611673  32.3144083
   2.7311673   4.0571673  31.9994083  15.9101673   5.1231673  21.7444083
  16.0131673   5.0651673  20.8804083  16.6511673   4.7911673  22.0624083
  16.0351673   5.0661673  21.6634083   9.8301673  12.0881673  22.8514083
   9.6251673  12.9211673  22.6924083   9.0551673  11.7061673  22.9734083
   9.6851673  12.1551673  22.8464083  15.0121673   5.2691673  31.1004083
  15.0101673   4.4061673  31.2244083  15.0791673   5.5931673  31.9074083
  15.0221673   5.1891673  31.2374083   5.1921673  12.3501673  19.2604083
   5.6331673  12.4301673  20.0084083   4.3871673  12.1341673  19.5184083
   5.1381673  12.3301673  19.4094083   4.5111673   7.0011673  32.9134083
   4.1151673   7.7751673  32.9884083   4.1051673   6.6281673  32.2374083
   4.3931673   7.0601673  32.8244083  13.7871673   6.0551673  27.0274083
  14.4531673   6.5961673  27.1874083  13.4421673   6.3661673  26.2884083
  13.8341673   6.1811673  26.9424083  14.1001673  14.1211673  22.8344083
  13.9261673  13.4671673  23.3844083  14.8131673  13.8501673  22.4114083
  14.1801673  13.9841673  22.8534083   2.5211673  11.4201673  19.8614083
   2.2771673  11.1131673  20.6414083   2.4881673  10.7171673  19.3454083
   2.4801673  11.2711673  19.9004083   5.3401673   9.6651673  18.6044083
   4.5221673   9.3971673  18.7444083   5.3121673  10.5171673  18.7894083
   5.2151673   9.7521673  18.6524083  11.7751673  11.5741673  30.5254083
  11.9811673  11.8751673  31.3174083  11.7141673  12.2961673  30.0404083
  11.7961673  11.7251673  30.5704083  11.3091673  15.7881673  34.7714083
  10.5561673  15.7701673  34.3304083  11.4771673  16.6401673  34.8554083
  11.2231673  15.9111673  34.7184083   6.5461673   5.0551673  33.9414083
   6.2241673   4.4791673  33.3714083   6.1871673   5.8101673  33.6954083
   6.4461673   5.0811673  33.8214083  16.5871673  10.2131673  29.9834083
  16.5551673   9.3511673  29.8484083  15.8941673  10.5151673  29.5494083
  16.4801673  10.1301673  29.8994083   4.9811673  15.4111673  34.1894083
   5.0221673  15.5371673  35.0524083   5.6321673  14.8511673  34.0334083
   5.0831673  15.3471673  34.2944083  14.6921673  13.4731673  28.7804083
  15.2191673  13.3901673  28.0894083  14.3011673  12.6951673  28.8344083
  14.7121673  13.3461673  28.6864083   2.5741673  13.7941673  35.5494083
   3.1691673  14.2251673  36.0214083   2.2101673  14.4181673  35.0604083
   2.6081673  13.9501673  35.5464083  10.5651673   4.7251673  25.4814083
  11.1161673   4.1181673  25.7814083  10.1401673   4.9881673  26.1964083
  10.5841673   4.6741673  25.6304083  12.5351673   6.5561673  22.0434083
  12.6031673   5.7061673  22.2244083  11.7121673   6.6421673  21.7654083
  12.4231673   6.4431673  22.0294083   2.2871673  15.0501673  21.2534083
   2.1421673  15.2061673  20.4074083   3.1531673  15.1291673  21.3314083
   2.3941673  15.0851673  21.1404083   6.4541673   7.4471673  20.9814083
   6.5541673   7.5861673  20.1264083   7.2721673   7.3871673  21.2774083
   6.5891673   7.4581673  20.8984083  15.6141673  15.5111673  18.4614083
  16.2511673  15.3771673  19.0424083  15.2731673  14.7171673  18.3444083
  15.6581673  15.3741673  18.5294083  15.8091673   7.9291673  35.1944083
  16.4431673   7.7591673  35.7684083  16.2261673   8.3321673  34.5424083
  15.9641673   7.9641673  35.1834083  11.6891673  11.7761673  20.7834083
  11.4381673  11.6481673  21.6094083  11.3721673  11.0811673  20.3624083
  11.6051673  11.6551673  20.8434083  16.4341673   2.4931673  35.9324083
  16.2381673   3.1371673  36.4874083  15.7121673   2.0031673  35.9244083
  16.2991673   2.5161673  36.0134083  16.3331673   3.4341673  28.9034083
  15.5001673   3.6841673  28.8314083  16.2771673   2.5941673  29.1324083
  16.2021673   3.3471673  28.9264083  13.2201673   8.0401673  36.5494083
  14.0911673   8.0041673  36.5134083  13.0011673   8.4601673  35.8174083
  13.3171673   8.0961673  36.4364083   2.9741673  13.8651673  27.7304083
   2.8951673  13.0551673  27.4144083   2.5301673  14.3521673  27.1584083
   2.8971673  13.8171673  27.5994083   8.5751673   9.9841673  20.2134083
   9.2921673   9.6371673  19.8574083   8.5411673  10.7841673  19.8654083
   8.6761673  10.0511673  20.1094083   9.7931673   5.5411673   9.1231673
   9.2691673   6.1371673   9.4861673  10.1901673   5.1731673   9.8071673
   9.7741673   5.5751673   9.2781673  15.9371673  12.9821673   2.0941673
  16.6381673  12.4631673   2.0901673  15.3501673  12.5371673   1.6251673
  15.9541673  12.8391673   2.0241673  12.4641673   6.6081673   5.7991673
  12.5441673   6.6121673   4.9301673  11.8801673   5.9761673   5.9481673
  12.3891673   6.5151673   5.6931673   6.1761673   9.9411673  15.9011673
   5.9401673   9.9381673  16.7411673   5.4281673   9.7931673  15.4771673
   6.0301673   9.9181673  15.9621673   6.1581673  13.1331673  13.1641673
   6.2961673  13.8931673  12.7571673   6.9491673  12.7681673  13.1911673
   6.2951673  13.1921673  13.1081673   3.0491673   5.0371673   5.0591673
   3.8661673   4.8501673   5.3021673   2.5721673   4.4231673   5.4551673
   3.0991673   4.9191673   5.1541673   7.2531673  11.0181673   7.6691673
   7.6011673  10.2191673   7.6991673   7.9181673  11.5221673   7.4141673
   7.4031673  10.9741673   7.6361673   7.3101673  10.4671673   3.8801673
   7.6411673   9.8231673   4.3661673   7.5501673  10.2561673   3.0691673
   7.3941673  10.3411673   3.8321673   9.2781673   4.5981673  15.2191673
   8.4301673   4.4991673  15.0411673   9.3071673   5.3431673  15.6731673
   9.1571673   4.6941673  15.2601673   5.2541673  12.2521673   3.4291673
   4.6751673  11.9771673   4.0211673   5.8781673  11.6431673   3.4541673
   5.2611673  12.1221673   3.5201673   9.5651673  14.9321673   2.9411673
   9.7791673  15.4591673   3.6031673  10.3321673  14.7581673   2.5621673
   9.7101673  14.9841673   2.9831673  12.0041673  14.9421673  11.2461673
  12.7481673  15.3981673  11.2361673  11.8831673  14.7281673  10.4091673
  12.0961673  14.9781673  11.1211673   1.7771673  11.5651673   7.3801673
   2.2001673  11.2091673   6.7061673   2.1011673  11.1431673   8.0721673
   1.8871673  11.4501673   7.3831673   5.0081673  14.4171673   6.6761673
   5.8521673  14.5211673   6.4811673   4.7111673  15.2351673   6.7441673
   5.0891673  14.5531673   6.6571673   8.8151673   3.8141673   4.7631673
   9.1021673   3.5821673   3.9731673   9.5471673   3.8931673   5.2321673
   8.9651673   3.7911673   4.7161673   4.0061673  15.6361673  12.4161673
   4.2981673  15.5691673  13.2361673   3.3801673  15.0311673  12.3711673
   3.9571673  15.5371673  12.5311673  11.2581673  12.1271673  14.9501673
  11.2241673  12.5091673  15.7341673  12.1121673  12.0851673  14.7791673
  11.3791673  12.1771673  15.0411673   9.1611673   2.5961673   2.0681673
   8.6531673   1.9341673   1.8141673   9.2131673   3.1001673   1.3581673
   9.0941673   2.5731673   1.9261673   9.7101673  15.2911673  12.4481673
  10.4781673  15.2111673  12.0421673   9.1271673  15.1701673  11.8101673
   9.7371673  15.2611673  12.2941673  15.9871673  15.8941673   5.3491673
  15.5321673  16.6111673   5.5501673  15.3731673  15.3231673   5.1071673
  15.8291673  15.9161673   5.3431673   7.7591673   1.9041673   6.4811673
   7.8331673   2.4721673   5.8231673   7.8801673   2.3961673   7.1911673
   7.7871673   2.0611673   6.4891673  12.9841673  11.7391673   4.8931673
  13.6851673  11.2571673   5.0821673  12.3241673  11.1701673   4.9381673
  12.9901673  11.5841673   4.9271673   3.3601673  12.6491673  14.1051673
   4.2011673  12.7121673  13.8831673   3.3231673  13.0461673  14.8811673
   3.4791673  12.7171673  14.1871673   5.3231673   8.1601673   8.8541673
   5.4951673   7.9501673   9.6831673   4.6681673   7.6261673   8.6381673
   5.2521673   8.0501673   8.9451673   6.0731673   8.0981673  11.4441673
   6.1261673   8.9451673  11.6461673   5.7881673   7.7281673  12.1811673
   6.0391673   8.1681673  11.5821673  12.2501673   8.7931673  10.5741673
  11.7361673   8.3811673  11.1451673  12.1241673   9.6371673  10.7551673
  12.1561673   8.8571673  10.6851673  15.2711673   2.2541673  13.5131673
  16.0431673   2.0291673  13.8501673  14.7961673   2.4711673  14.2131673
  15.3151673   2.2531673  13.6661673   2.6391673   8.9641673   6.0321673
   3.4901673   8.8841673   5.8591673   2.2821673   8.2821673   5.6201673
   2.7121673   8.8511673   5.9451673  17.7371673  13.7411673  14.9551673
  17.0551673  14.0511673  14.5081673  17.3681673  13.2831673  15.6001673
  17.5811673  13.7191673  14.9841673   5.0071673   8.9711673   4.2671673
   5.7201673   9.4661673   4.3571673   5.2291673   8.4041673   3.6411673
   5.1451673   8.9601673   4.1881673   6.8101673   4.3241673  17.6831673
   6.3261673   4.9011673  18.1251673   6.7821673   4.6191673  16.8621673
   6.7341673   4.4531673  17.6271673  17.9081673   5.0081673  12.2951673
  18.1231673   4.2081673  12.0191673  17.0581673   5.0681673  12.1061673
  17.8141673   4.8991673  12.2261673   9.5301673  12.6741673   6.5941673
   9.0071673  13.3081673   6.3011673   9.8401673  12.3101673   5.8651673
   9.4981673  12.7141673   6.4431673   3.6051673  10.4621673   9.3541673
   4.0721673  10.7511673  10.0321673   4.1771673   9.9841673   8.9001673
   3.7591673  10.4341673   9.3871673  15.5711673  14.1231673  13.0451673
  14.9001673  14.6371673  13.2631673  15.6341673  14.2231673  12.1811673
  15.4811673  14.2141673  12.9501673   4.2551673  11.6481673   6.1801673
   4.3811673  12.4911673   6.3671673   4.9231673  11.2491673   6.5761673
   4.3731673  11.7141673   6.2661673   2.3851673   5.1311673  16.0421673
   1.8491673   4.6251673  16.5101673   2.4051673   4.7411673  15.2621673
   2.3081673   4.9981673  15.9961673   3.0371673   6.3581673   7.7811673
   2.2561673   6.2991673   7.3981673   3.1091673   5.6061673   8.2181673
   2.9321673   6.2391673   7.7891673   3.4671673   6.0951673  11.2491673
   3.4921673   5.4201673  10.6981673   2.8211673   6.5911673  10.9371673
   3.3761673   6.0681673  11.1221673  13.3621673   3.8081673   9.6451673
  12.7001673   4.1361673  10.1081673  13.5491673   4.4421673   9.0761673
  13.2921673   3.9501673   9.6291673   7.5671673  14.8721673  10.6411673
   7.2901673  14.2311673  10.1181673   7.3591673  15.5981673  10.2031673
   7.4961673  14.8851673  10.4991673  11.5551673   1.7771673   3.1561673
  12.0451673   2.4941673   3.0791673  10.7651673   2.0381673   2.8931673
  11.5111673   1.9211673   3.1061673  12.8691673   9.6551673  15.0661673
  13.3531673  10.3731673  15.1641673  13.2631673   9.2281673  14.4151673
  12.9991673   9.6981673  14.9841673   7.1651673  12.5001673  16.2431673
   7.5191673  12.3221673  17.0201673   6.7291673  11.7711673  16.0441673
   7.1531673  12.3661673  16.3291673   8.1371673   3.2471673   8.8811673
   8.6171673   3.9461673   9.0891673   8.5101673   2.6001673   9.3321673
   8.2631673   3.2551673   8.9781673  15.2981673  10.2861673   5.1361673
  15.6541673   9.9361673   5.8511673  15.2901673   9.6251673   4.5661673
  15.3501673  10.1361673   5.1571673  11.3431673  13.3521673   8.9801673
  10.7401673  13.0561673   8.4231673  11.8881673  13.8041673   8.4711673
  11.3341673  13.3751673   8.8221673  11.3561673  10.2031673   8.3801673
  10.5591673  10.4271673   8.6541673  11.6141673   9.6091673   8.9651673
  11.2761673  10.1481673   8.5071673   5.2481673  15.0151673   2.8281673
   5.1011673  14.2391673   3.1991673   5.9371673  14.8681673   2.3131673
   5.3281673  14.8781673   2.8071673  14.6161673   8.2011673  13.2261673
  14.6711673   8.3261673  12.3641673  15.3691673   8.5211673  13.5281673
  14.7351673   8.2661673  13.1431673  10.8071673  13.5501673  17.5031673
  10.9711673  13.8331673  18.3121673  11.0701673  14.2111673  16.9981673
  10.8701673  13.6901673  17.5481673   2.0411673   7.0651673   2.0591673
   2.3651673   6.2861673   1.8371673   2.6871673   7.4331673   2.5141673
   2.1841673   7.0041673   2.0931673  10.3471673   8.0071673  12.8261673
  10.1921673   8.6171673  13.4301673  10.8811673   7.4491673  13.2321673
  10.4031673   8.0151673  12.9751673   8.7311673   6.4071673   3.4841673
   8.7901673   7.0571673   4.0631673   8.5421673   5.7111673   3.9751673
   8.7121673   6.4001673   3.6421673  13.9571673  10.7361673   9.3531673
  13.4781673  11.0341673   8.6871673  13.6011673   9.9601673   9.5311673
  13.8341673  10.6651673   9.2811673   7.9541673   8.4541673   7.9151673
   7.1071673   8.2601673   7.9961673   8.2781673   8.2891673   8.7081673
   7.8761673   8.4011673   8.0441673   5.0321673   3.3181673   6.9661673
   5.8781673   3.1281673   7.0641673   4.6621673   2.5411673   6.8281673
   5.1021673   3.1751673   6.9601673  14.8881673   7.6781673  10.4721673
  14.8811673   6.9021673  10.8701673  14.0471673   7.9121673  10.4651673
  14.7631673   7.5981673  10.5301673  16.1441673   7.7491673   7.9091673
  15.8581673   8.1501673   8.6291673  17.0041673   7.6871673   8.0361673
  16.2291673   7.7991673   8.0341673   5.8331673   4.5511673   1.8171673
   6.1051673   5.3771673   1.8841673   4.9701673   4.6261673   1.7211673
   5.7461673   4.6841673   1.8121673  17.2751673  13.3821673   8.4381673
  17.5651673  13.6391673   7.6571673  17.9701673  13.4781673   8.9571673
  17.4211673  13.4341673   8.3991673  12.2981673   5.2421673  16.5251673
  12.3711673   5.3461673  17.3881673  11.6641673   5.8001673  16.3041673
  12.2151673   5.3401673  16.6201673  14.5661673   5.5611673  14.8901673
  14.8851673   6.3471673  15.0931673  14.1961673   5.2911673  15.6331673
  14.5591673   5.6371673  15.0301673  14.3621673   3.8191673   6.0791673
  13.6171673   3.4961673   6.3971673  14.3641673   4.6451673   6.3591673
  14.2521673   3.8931673   6.1671673  17.2641673   6.1031673  17.6251673
  17.2121673   5.7621673  16.8241673  18.0011673   6.5701673  17.6031673
  17.3651673   6.1221673  17.5031673  16.8021673   9.7791673  13.8311673
  17.4301673   9.2301673  13.5751673  16.7411673  10.3441673  13.1691673
  16.8861673   9.7821673  13.6951673   5.9361673  11.0101673  11.1271673
   5.6381673  11.6021673  11.6941673   5.9911673  11.4521673  10.3781673
   5.9001673  11.1631673  11.1001673   3.9151673   9.9601673  14.5251673
   3.1091673   9.6701673  14.6921673   3.8261673  10.8281673  14.5311673
   3.7831673  10.0451673  14.5501673   8.4521673   7.4331673  10.6181673
   8.9281673   7.8071673  11.2461673   7.6291673   7.5671673  10.8771673
   8.4011673   7.5081673  10.7491673   5.1621673   3.0361673  13.3591673
   5.3231673   2.2921673  13.7861673   5.1171673   2.7871673  12.5241673
   5.1791673   2.8891673  13.2991673   7.7161673  14.8261673   5.8461673
   8.2621673  15.5051673   5.9001673   7.3661673  14.9081673   5.0511673
   7.7451673  14.9391673   5.7361673   5.8991673  13.0541673   9.2351673
   5.2751673  13.6361673   9.0531673   6.1471673  12.7681673   8.4491673
   5.8431673  13.0981673   9.0921673  10.2081673   9.6881673  16.2241673
  10.9651673   9.9741673  15.8981673   9.6611673   9.7401673  15.5461673
  10.2391673   9.7381673  16.0751673  14.1171673  12.2381673  14.7281673
  14.4631673  12.5081673  15.4821673  14.4111673  12.8201673  14.1481673
  14.2121673  12.3641673  14.7541673   3.4231673   3.8971673   9.3001673
   3.8631673   3.7941673   8.5541673   3.9681673   3.5841673   9.9051673
   3.5681673   3.8361673   9.2791673  11.4391673   2.9991673  14.8921673
  10.7911673   3.4691673  15.2401673  12.0041673   2.9101673  15.5511673
  11.4271673   3.0551673  15.0411673  11.1271673   4.5361673  11.1901673
  11.4291673   4.9561673  11.8931673  11.1631673   3.6961673  11.4221673
  11.1771673   4.4741673  11.3281673   8.5521673  14.7031673  15.1151673
   9.0301673  14.1031673  14.6991673   8.2011673  14.2601673  15.7801673
   8.5711673  14.5491673  15.1521673  13.6751673   3.9831673   3.4421673
  13.8821673   3.7821673   4.2661673  14.4311673   4.2511673   3.1001673
  13.8171673   3.9931673   3.5131673  15.1401673   8.0101673   3.2961673
  15.6161673   7.2811673   3.2481673  14.3191673   7.7241673   3.2201673
  15.0891673   7.8601673   3.2771673   8.6111673   9.9221673  14.1351673
   7.8161673   9.8581673  14.4861673   8.6821673  10.7691673  13.9401673
   8.5041673  10.0371673  14.1581673   4.4411673  16.1291673   9.4521673
   4.4521673  16.1881673  10.3221673   4.0161673  15.3821673   9.3021673
   4.3801673  16.0271673   9.5581673  11.3561673   9.1771673   5.6511673
  11.4321673   9.5181673   6.4501673  11.5251673   8.3301673   5.7721673
  11.3921673   9.1021673   5.7871673   8.8781673   8.4511673   5.2161673
   8.5801673   8.1361673   5.9731673   9.5731673   8.9241673   5.4511673
   8.9371673   8.4741673   5.3631673   9.1001673  12.5691673  13.2431673
   9.7871673  12.4551673  13.7681673   9.2341673  13.3601673  12.8991673
   9.2211673  12.6691673  13.2701673  17.2761673   5.1781673  15.0541673
  16.4211673   5.0561673  15.1801673  17.4291673   4.7831673  14.2911673
  17.1721673   5.1011673  14.9601673  11.7891673   5.8431673  13.6301673
  11.5341673   5.1241673  14.0521673  12.6101673   5.9591673  13.9001673
  11.8731673   5.7541673  13.7321673   9.7231673   7.0331673  16.8171673
  10.0461673   7.7191673  16.3851673   9.0191673   7.3561673  17.2191673
   9.6661673   7.1821673  16.8121673  12.8071673  15.4071673   7.7461673
  12.3561673  16.0501673   8.1251673  13.5151673  15.3281673   8.2511673
  12.8451673  15.4901673   7.8771673   9.5081673  10.4971673  10.6761673
   8.8141673  10.8991673  11.0191673  10.1851673  10.9301673  11.0151673
   9.5051673  10.6201673  10.7771673  14.8851673  13.0901673  17.2561673
  15.6611673  12.7001673  17.3391673  14.4161673  12.7541673  17.9111673
  14.9301673  12.9831673  17.3651673   2.5761673   4.0351673  13.0231673
   2.9511673   4.6541673  12.5361673   3.2501673   3.5611673  13.3081673
   2.7311673   4.0571673  12.9931673  15.9101673   5.1231673   2.7381673
  16.0131673   5.0651673   1.8741673  16.6511673   4.7911673   3.0561673
  16.0351673   5.0661673   2.6571673   9.8301673  12.0881673   3.8451673
   9.6251673  12.9211673   3.6861673   9.0551673  11.7061673   3.9671673
   9.6851673  12.1551673   3.8401673  15.0121673   5.2691673  12.0941673
  15.0101673   4.4061673  12.2181673  15.0791673   5.5931673  12.9011673
  15.0221673   5.1891673  12.2311673   4.5111673   7.0011673  13.9071673
   4.1151673   7.7751673  13.9821673   4.1051673   6.6281673  13.2311673
   4.3931673   7.0601673  13.8181673  13.7871673   6.0551673   8.0211673
  14.4531673   6.5961673   8.1811673  13.4421673   6.3661673   7.2821673
  13.8341673   6.1811673   7.9361673  14.1001673  14.1211673   3.8281673
  13.9261673  13.4671673   4.3781673  14.8131673  13.8501673   3.4051673
  14.1801673  13.9841673   3.8471673  11.7751673  11.5741673  11.5191673
  11.9811673  11.8751673  12.3111673  11.7141673  12.2961673  11.0341673
  11.7961673  11.7251673  11.5641673  11.3091673  15.7881673  15.7651673
  10.5561673  15.7701673  15.3241673  11.4771673  16.6401673  15.8491673
  11.2231673  15.9111673  15.7121673   6.5461673   5.0551673  14.9351673
   6.2241673   4.4791673  14.3651673   6.1871673   5.8101673  14.6891673
   6.4461673   5.0811673  14.8151673  16.5871673  10.2131673  10.9771673
  16.5551673   9.3511673  10.8421673  15.8941673  10.5151673  10.5431673
  16.4801673  10.1301673  10.8931673   4.9811673  15.4111673  15.1831673
   5.0221673  15.5371673  16.0461673   5.6321673  14.8511673  15.0271673
   5.0831673  15.3471673  15.2881673  14.6921673  13.4731673   9.7741673
  15.2191673  13.3901673   9.0831673  14.3011673  12.6951673   9.8281673
  14.7121673  13.3461673   9.6801673   2.5741673  13.7941673  16.5431673
   3.1691673  14.2251673  17.0151673   2.2101673  14.4181673  16.0541673
   2.6081673  13.9501673  16.5401673  10.5651673   4.7251673   6.4751673
  11.1161673   4.1181673   6.7751673  10.1401673   4.9881673   7.1901673
  10.5841673   4.6741673   6.6241673  12.5351673   6.5561673   3.0371673
  12.6031673   5.7061673   3.2181673  11.7121673   6.6421673   2.7591673
  12.4231673   6.4431673   3.0231673   2.2871673  15.0501673   2.2471673
   2.1421673  15.2061673   1.4011673   3.1531673  15.1291673   2.3251673
   2.3941673  15.0851673   2.1341673  15.8091673   7.9291673  16.1881673
  16.4431673   7.7591673  16.7621673  16.2261673   8.3321673  15.5361673
  15.9641673   7.9641673  16.1771673  11.6891673  11.7761673   1.7771673
  11.4381673  11.6481673   2.6031673  11.3721673  11.0811673   1.3561673
  11.6051673  11.6551673   1.8371673  16.4341673   2.4931673  16.9261673
  16.2381673   3.1371673  17.4811673  15.7121673   2.0031673  16.9181673
  16.2991673   2.5161673  17.0071673  16.3331673   3.4341673   9.8971673
  15.5001673   3.6841673   9.8251673  16.2771673   2.5941673  10.1261673
  16.2021673   3.3471673   9.9201673  13.2201673   8.0401673  17.5431673
  14.0911673   8.0041673  17.5071673  13.0011673   8.4601673  16.8111673
  13.3171673   8.0961673  17.4301673   2.9741673  13.8651673   8.7241673
   2.8951673  13.0551673   8.4081673   2.5301673  14.3521673   8.1521673
   2.8971673  13.8171673   8.5931673
  72.7338665  69.7116585  92.8932985  90.0000000  90.0000000  90.0000000
