default_name
 50286
  26.4597364  52.8136467  56.4439437  26.3963850  53.6166968  57.0532040
  25.5309407  52.5692902  56.1313275  27.1935209  52.9753247  55.7690214
  26.9097364  51.6786467  57.2369437  26.1616787  50.8869043  57.1962881
  28.2177364  51.1376467  56.6939437  28.9792508  51.9163476  56.7366129
  28.5362113  50.2854458  57.2943000  28.0795057  50.8216284  55.6599592
  27.0677364  52.0796467  58.6889437  27.3237364  53.2446467  58.9839437
  26.9047364  51.1256467  59.6019437  26.5758549  50.2048323  59.3488879
  27.0927364  51.4276467  61.0139437  26.6974216  52.4212180  61.2252290
  26.3717364  50.4146467  61.9059437  26.4507733  50.7259448  62.9475511
  25.3207729  50.3626212  61.6215685  26.9057364  48.6886467  61.9319437
  28.5947364  51.5046467  61.2739437  29.3217364  50.5146467  61.1459437
  29.0747364  52.7076467  61.5569437  28.4472482  53.4979086  61.5998871
  30.4937364  52.9446467  61.7479437  31.0787620  52.2302384  61.1687504
  30.8407364  54.3586467  61.2749437  30.1962117  54.5932842  60.4278118
  30.6273892  55.0451746  62.0942498  32.2937364  54.5026467  60.8599437
  33.0357364  53.4966467  60.8729437  32.6987364  55.6346467  60.5169437
  30.9407364  52.7536467  63.1899437  32.1477364  52.6996467  63.4459437
  30.0077364  52.6596467  64.1329437  29.0288153  52.7416537  63.8982360
  30.3687364  52.4696467  65.5299437  31.1088862  53.2247529  65.7946927
  29.1297364  52.6726467  66.4029437  28.4986627  51.7873788  66.3245407
  29.5107364  52.8906467  67.8419437  30.1414801  53.7760726  67.9212085
  28.6100913  53.0321051  68.4393775  30.0570715  52.0219304  68.2092999
  28.4487364  53.8556467  65.9749437  27.6689749  53.9903554  66.5184747
  30.9447364  51.0726467  65.7389437  30.5747364  50.1196467  65.0529437
  31.8657364  50.9526467  66.6979437  32.1127265  51.7470870  67.2706215
  32.5847364  49.7076467  66.9009437  32.7002474  49.2346457  65.9257379
  33.9727364  49.9966467  67.4709437  33.8736781  50.4621941  68.4515319
  34.5282331  49.0637170  67.5666821  34.5077985  50.6704731  66.8017907
  31.8507364  48.7296467  67.8059437  32.4907364  47.8566467  68.3999437
  30.5357364  48.8576467  67.9449437  30.0663243  49.6851857  67.6059292
  29.7457364  47.8496467  68.6289437  30.3966934  47.2316333  69.2473396
  28.6947364  48.5046467  69.5279437  28.1493528  47.7272531  70.0630289
  29.3567364  49.4286467  70.5209437  29.9019702  50.2066326  69.9865678
  28.5969178  49.8874082  71.1536465  30.0500839  48.8601387  71.1407570
  27.7847364  49.2606467  68.7239437  27.1252520  49.6717014  69.2876056
  29.0607364  46.9046467  67.6599437  28.5857364  45.8456467  68.0819437
  29.0167364  47.2526467  66.3769437  29.3639545  48.1654946  66.1195576
  28.4207364  46.4226467  65.3389437  27.9115412  45.5736051  65.7949567
  27.4057364  47.2206467  64.5259437  26.8980690  46.5572510  63.8257443
  26.6732231  47.6686649  65.1973631  28.0677364  48.6096467  63.5959437
  29.4817364  45.8136467  64.4329437  29.2907364  45.6816467  63.2229437
  30.6107364  45.4326467  65.0249437  30.7498811  45.5900420  66.0128530
  31.7087364  44.8666467  64.2549437  31.9083780  45.4519807  63.3573767
  32.9837364  44.8266467  65.1079437  32.8181951  44.1745577  65.9655423
  34.1347364  44.3066467  64.2999437  34.3011915  44.9585238  63.4423600
  35.0322882  44.2838733  64.9179910  33.9086726  43.2989740  63.9512425
  33.2957364  46.2066467  65.6299437  32.4656143  46.5607286  66.2411928
  34.2019782  46.1706774  66.2345358  33.4454437  46.8874000  64.7919321
  31.3187364  43.4916467  63.7319437  31.5927364  43.1416467  62.5739437
  30.5937364  42.7266467  64.5459437  30.4134131  43.0071088  65.4993187
  30.0937364  41.4366467  64.1009437  30.8706773  40.8959899  63.5604326
  29.6647364  40.6026467  65.2989437  30.5137794  40.4826785  65.9718730
  28.5377364  41.2796467  66.0299437  27.6881082  41.3995514  65.3577425
  28.2411979  40.6716174  66.8846159  28.8661108  42.2590288  66.3779114
  29.2337364  39.3156467  64.8469437  28.9621515  38.7863200  65.6003727
  28.9377364  41.5676467  63.1239437  28.7007364  40.6336467  62.3579437
  28.3507364  42.7486467  62.9879437  28.5787481  43.5268080  63.5900857
  27.3137364  42.9326467  61.9879437  26.7737571  41.9962039  61.8479563
  26.3207364  44.0086467  62.4159437  26.8540240  44.9155232  62.7010376
  25.6270284  44.2350482  61.6062452  25.4917364  43.6146467  63.5899437
  24.4827364  42.6826467  63.5039437  24.2158499  42.2003448  62.6576245
  23.9307364  42.5266467  64.6929437  23.1114767  41.8221520  64.8364699
  24.5407364  43.3306467  65.5439437  25.5247364  44.0196467  64.8799437
  26.1474146  44.7344784  65.4178922  27.9207364  43.2946467  60.6529437
  27.4267364  42.8346467  59.6179437  29.0267364  44.0386467  60.6609437
  29.3828202  44.4569848  61.5084677  29.7247364  44.3066467  59.4139437
  29.0133661  44.6326545  58.6551484  30.7647364  45.4036467  59.6099437
  31.3841577  45.1174253  60.4599401  31.3775793  45.4364763  58.7091409
  30.1647364  46.7686467  59.8609437  29.3923538  46.9487439  59.1132198
  29.7157257  46.7707563  60.8541643  31.2137364  47.8626467  59.7779437
  31.7340233  47.7723891  58.8243956  30.7116013  48.8288401  59.8272406
  32.1947364  47.7906467  60.8539437  33.0105948  47.2147085  60.7030481
  32.0727364  48.4256467  62.0149437  31.0137364  49.1866467  62.2479437
  30.2992973  49.2827996  61.5405319  30.9256555  49.6671885  63.1319239
  33.0147364  48.3086467  62.9399437  33.8263741  47.7350744  62.7600572
  32.9165925  48.7935982  63.8204484  30.3737364  43.0276467  58.9189437
  30.3667364  42.7476467  57.7129437  30.8777364  42.2126467  59.8499437
  30.9212016  42.4905036  60.8199982  31.4597364  40.9336467  59.4719437
  32.1670287  41.0756608  58.6548338  32.1997364  40.3156467  60.6559437
  32.9156774  41.0592757  61.0060060  31.4321597  40.1654492  61.4151320
  32.9227364  38.9966467  60.3959437  33.0710210  38.8736756  59.3231014
  34.2487364  38.9966467  61.0849437  34.1012305  39.1191206  62.1579493
  34.7578841  38.0519311  60.8942037  34.8556921  39.8188897  60.7059693
  32.1227364  37.8466467  60.9459437  31.1461955  37.8186183  60.4625372
  32.6496584  36.9120203  60.7537775  31.9921253  37.9752222  62.0204241
  30.3817364  40.0026467  58.9309437  30.6157364  39.2986467  57.9429437
  29.2057364  39.9766467  59.5759437  29.0693766  40.5397913  60.4032124
  28.1157364  39.1076467  59.1429437  28.4633960  38.0759849  59.0890381
  26.9617364  39.1816467  60.1369437  26.5967984  40.2070922  60.1950964
  26.1547232  38.5275052  59.8068999  27.3076172  38.8633153  61.1203718
  27.6507364  39.5006467  57.7509437  27.4437364  38.6396467  56.8879437
  27.4507364  40.8056467  57.5389437  27.5965024  41.4684306  58.2869873
  27.0227364  41.3106467  56.2439437  26.0522996  40.8748525  56.0063829
  26.9274275  42.3944759  56.3097454  28.0017364  40.9676467  55.1379437
  27.6087364  40.4496467  54.0859437  29.2897364  41.2786467  55.3579437
  29.5726618  41.7424040  56.2094023  30.3057364  41.0036467  54.3509437
  30.0354721  41.4738424  53.4054426  31.6467364  41.5646467  54.8079437
  31.4497072  42.6289590  54.9364661  31.8803377  41.1195299  55.7751053
  32.8277364  41.3776467  53.8649437  32.9511170  40.3157760  53.6520852
  32.5857364  42.1256467  52.5729437  32.4627115  43.1877263  52.7849594
  33.4364811  41.9849325  51.9062102  31.6833547  41.7441412  52.0951768
  34.1067364  41.8446467  54.5289437  34.2790358  41.2642649  55.4353484
  34.9436841  41.7057448  53.8446003  34.0190825  42.9004308  54.7853336
  30.4257364  39.5126467  54.0729437  30.5767364  39.1126467  52.9129437
  30.4047364  38.6796467  55.1209437  30.3779527  39.0296235  56.0679908
  30.5107364  37.2396467  54.9189437  31.3838273  37.0321427  54.3002730
  30.6547364  36.4846467  56.2319437  29.9985232  36.9916042  56.9393881
  30.3037955  35.4641261  56.0787174  32.0687364  36.4556467  56.7849437
  32.3966433  37.4675979  57.0227095  32.0747364  35.6206467  58.0349437
  31.7473630  34.6083606  57.7978734  33.0836183  35.5887014  58.4463286
  31.3975832  36.0585620  58.7682883  33.0187364  35.8866467  55.7439437
  32.9949068  36.5101319  54.8501888  34.0314041  35.8685187  56.1467794
  32.7121844  34.8726360  55.4872199  29.3297364  36.6996467  54.1339437
  29.5007364  35.8176467  53.2949437  28.1147364  37.1396467  54.4649437
  27.9661408  37.7788822  55.2326654  26.9507364  36.6476467  53.7409437
  26.9391056  35.5577533  53.7507579  25.6737364  37.1536467  54.3969437
  25.6115482  36.7556718  55.4097852  25.7005105  38.2426169  54.4360221
  24.5437364  36.7366467  53.6569437  23.7460018  37.0618173  54.0805986
  26.9887364  37.0636467  52.2789437  26.7167364  36.2496467  51.3909437
  27.3217364  38.3286467  52.0139437  27.5174798  38.9796918  52.7608869
  27.3587364  38.8206467  50.6389437  26.4288850  38.5781992  50.1244588
  27.5297364  40.3346467  50.6479437  26.8320487  40.7290651  51.3867030
  28.5513858  40.5373551  50.9692563  27.2817364  40.9956467  49.3229437
  27.9416126  40.5619706  48.5715522  26.2440611  40.8398288  49.0278965
  27.5547364  42.4746467  49.4379437  28.6174257  42.6300640  49.6240505
  27.2741394  42.9649661  48.5057680  26.7957364  43.0766467  50.5299437
  27.2880244  43.2073289  51.4021100  25.5257364  43.4606467  50.4549437
  24.8377364  43.3096467  49.3329437  25.2808912  42.8983553  48.5238991
  23.8732299  43.6065149  49.2917582  24.9377364  43.9976467  51.5149437
  25.4576847  44.1119914  52.3732438  23.9725536  44.2899177  51.4592786
  28.4707364  38.1816467  49.8069437  28.2497364  37.8006467  48.6529437
  29.6637364  38.0556467  50.3789437  29.7575489  38.3714165  51.3337149
  30.8567364  37.5826467  49.6869437  30.6979889  37.5661943  48.6086915
  32.0007364  38.5346467  49.9949437  32.1594385  38.5685366  51.0727955
  32.9069170  38.1772593  49.5058517  31.6907364  39.8326467  49.5229437
  32.4177815  40.4273528  49.7212614  31.2717364  36.1426467  49.9829437
  32.4037364  35.7796467  49.6499437  30.4457364  35.3736467  50.7009437
  29.5659283  35.7555205  51.0175028  30.7677364  33.9856467  51.0509437
  31.5623768  34.0233394  51.7960779  29.8713128  33.5558511  51.4979336
  31.2137364  33.1076467  49.8979437  32.1987364  32.3736467  50.0039437
  30.5097364  33.1846467  48.7749437  29.7494395  33.8474225  48.7222537
  30.7827364  32.3576467  47.6149437  30.8857256  31.3352896  47.9786446
  29.9066971  32.4268011  46.9700622  32.0137364  32.7216467  46.8139437
  32.2467364  32.1096467  45.7689437  32.8147364  33.6806467  47.2689437
  32.5807359  34.2015054  48.1020400  34.0177364  34.0556467  46.5339437
  33.8369495  34.0709174  45.4591497  34.4947364  35.4506467  46.9719437
  34.5680515  35.4764946  48.0591677  35.8457364  35.7576467  46.3689437
  35.7731066  35.7324366  45.2816580  36.1700128  36.7481636  46.6880388
  36.5700713  35.0141183  46.7015186  33.4897364  36.4916467  46.5519437
  32.5280325  36.2780183  47.0184099  33.8340811  37.4771734  46.8654137
  33.3789992  36.4739207  45.4677279  35.1067364  33.0136467  46.7319437
  35.6427364  32.4586467  45.7659437  35.4487364  32.7256467  47.9769437
  35.0474661  33.2203705  48.7607357  36.4737364  31.7316467  48.2419437
  37.1635559  31.6431837  47.4026449  37.2717364  32.0836467  49.4939437
  36.5861360  32.2082054  50.3321183  38.2597364  30.9796467  49.8099437
  38.9460086  30.8548059  48.9723602  38.8237415  31.2413807  50.7052057
  37.7213716  30.0472524  49.9799612  37.9887364  33.4006467  49.2939437
  37.2587488  34.1866145  49.1003594  38.5564419  33.6458337  50.1915480
  38.6683626  33.3197630  48.4456119  35.8377364  30.3546467  48.3679437
  35.0907364  30.0896467  49.3089437  36.0327364  29.4876467  47.3639437
  36.6801268  29.6980061  46.6177977  35.4577364  28.1726467  47.4159437
  35.4777660  27.8711770  48.4632326  34.0097364  28.0056467  46.8789437
  34.0256448  28.5260717  45.9213405  33.9177978  26.9331438  46.7075238
  32.8157364  28.4946467  47.7059437  32.8288354  27.9719987  48.6623790
  32.9360859  29.5646301  47.8755123  31.4747364  28.2356467  46.9989437
  31.2152520  27.1928947  47.1817962  30.7357214  28.8818617  47.4726130
  31.4917364  28.5006467  45.4879437  30.5744879  29.0235623  45.2171762
  32.3504901  29.1305743  45.2559256  31.5847364  27.2356467  44.7189437
  30.7888652  26.6519785  44.9334670  31.5938415  27.4425112  43.7303972
  32.4348225  26.7511533  44.9693808  36.2477364  27.3906467  46.4369437
  37.3217364  27.8106467  46.0049437  35.6997364  26.2076467  46.0959437
  34.8840949  25.9394486  46.6278254  36.1667364  25.3186467  45.0739437
  37.2174977  25.0883089  45.2498534  35.3677364  23.9986467  45.0629437
  35.7488920  23.3072636  44.3114060  35.4460667  23.5415691  46.0493739
  33.8947364  24.2756467  44.7689437  33.2647364  25.1536467  45.3569437
  33.3387364  23.5146467  43.7859437  32.3680113  23.6444950  43.5390994
  33.8995964  22.8238137  43.3081503  36.0157364  25.9966467  43.7309437
  36.9747364  26.0396467  42.9669437  34.8247364  26.5696467  43.4089437
  33.9886151  26.5192488  43.9732668  34.7577364  27.2646467  42.1509437
  35.7693896  27.5331830  41.8467313  34.1147364  26.4156467  41.0319437
  34.1670298  26.8989259  40.0563383  34.6376112  25.4600817  40.9919747
  32.6477364  26.1556467  41.3699437  32.3027364  25.7106467  42.4639437
  31.7507364  26.5016467  40.4129437  30.7642726  26.3558383  40.5733466
  32.0733829  26.9035109  39.5443212  33.9747364  28.5576467  42.2449437
  32.8007364  28.5826467  42.6159437  34.6247364  29.6886467  41.9109437
  35.6335540  29.6942504  41.8624160  33.9137364  30.9386467  41.6669437
  32.8434053  30.7455929  41.5946885  34.1557364  31.9256467  42.8069437
  33.7461401  31.5334797  43.7378225  35.2235966  32.1072967  42.9285073
  33.5167364  33.2606467  42.5869437  32.1447364  33.4066467  42.6729437
  31.5314264  32.5372612  42.9098395  31.5497364  34.6346467  42.4629437
  30.4664429  34.7374629  42.5262270  32.3317364  35.7346467  42.1719437
  31.8678085  36.7078886  42.0117220  33.7037364  35.6006467  42.0839437
  34.3226188  36.4666830  41.8492827  34.2897364  34.3716467  42.2929437
  35.3726389  34.2660241  42.2276296  34.3167364  31.5756467  40.3479437
  35.4967364  31.6196467  40.0059437  33.3307364  32.0826467  39.6179437
  32.3793230  31.9901310  39.9440616  33.5617364  32.7416467  38.3379437
  34.4938562  32.4213983  37.8724411  32.4107364  32.4766467  37.3619437
  31.4763063  32.8075523  37.8152000  32.6367364  33.2286467  36.0629437
  33.5708178  32.8979224  35.6088355  31.8110077  33.0306712  35.3795124
  32.6909077  34.2981313  36.2663395  32.2577364  30.9876467  37.1169437
  32.0463739  30.4835630  38.0599854  31.4360987  30.8158502  36.4216042
  33.1806313  30.5919504  36.6929269  33.7147364  34.2376467  38.5959437
  32.7687364  34.8616467  39.0999437  34.8597364  34.8366467  38.2789437
  36.1447364  34.1896467  37.9849437  36.2269734  34.0026465  36.9142579
  36.2139647  33.2451381  38.5245825  37.1377364  35.1976467  38.4699437
  38.0718102  35.0937524  37.9178467  37.3265163  35.0504671  39.5333353
  36.5057364  36.5166467  38.2219437  36.6746125  36.7858248  37.1792918
  36.8662874  37.3182381  38.8665783  35.0117364  36.2836467  38.4639437
  34.7034931  36.5381051  39.4780124  34.1687364  37.0586467  37.4709437
  33.9997364  36.6516467  36.3209437  33.6357364  38.1836467  37.9279437
  33.7737294  38.4714057  38.8861984  32.8107364  39.0166467  37.0709437
  32.0980671  38.3925965  36.5317193  32.0367364  40.0296467  37.9059437
  32.7447815  40.6883431  38.4088267  31.1207364  40.8506467  37.0299437
  30.4120572  40.1926390  36.5270528  30.5766872  41.5682150  37.6441142
  31.7113604  41.3845219  36.2854700  31.2457364  39.3316467  38.8729437
  30.7554440  39.9647739  39.4024375  33.6997364  39.7276467  36.0619437
  34.7087364  40.3316467  36.4329437  33.3367364  39.6376467  34.7839437
  32.5297954  39.0936053  34.5138242  34.1157364  40.2836467  33.7369437
  35.1731771  40.0570746  33.8732642  33.6847364  39.7886467  32.3599437
  33.6376973  38.6999295  32.3840574  32.6964723  40.1896018  32.1348457
  34.6457364  40.2106467  31.2529437  35.6677364  40.8526467  31.5009437
  34.3127364  39.8516467  30.0199437  34.9103205  40.1027141  29.2453741
  33.4631723  39.3289237  29.8615063  33.9437364  41.7916467  33.8379437
  32.8247364  42.3076467  33.7609437  35.0567364  42.4896467  34.0349437
  35.9263499  41.9917896  34.1614742  35.0747364  43.9426467  34.1199437
  34.1063069  44.3511671  33.8312318  35.3977364  44.4076467  35.5499437
  35.5329242  45.4892207  35.5453547  34.2787364  44.0436467  36.5009437
  34.1432550  42.9621127  36.5064230  34.5304127  44.3828677  37.5057764
  33.3552185  44.5233458  36.1767445  36.6857364  43.7636467  36.0169437
  37.4990493  44.0520780  35.3510372  36.9116994  44.0951870  37.0304137
  36.5751596  42.6793238  36.0061024  36.1047364  44.4716467  33.1339437
  36.5347364  45.6276467  33.2269437  36.4977364  43.6386467  32.1749437
  36.0609664  42.7347725  32.0638459  37.5627364  44.0036467  31.2629437
  38.3227661  44.5299304  31.8404205  37.9840768  43.0805600  30.8648449
  37.1237364  44.8816467  30.1109437  36.3157364  45.7946467  30.2899437
  37.6397364  44.6056467  28.9159437  38.2601314  43.8180750  28.7937139
  37.3717364  45.4586467  27.7659437  37.2167984  46.4870611  28.0922215
  38.5547364  45.4256467  26.8029437  39.4462116  45.7765379  27.3227961
  38.7107633  44.4006845  26.4664796  38.3037364  46.2556467  25.6849437
  39.0553789  46.2250572  25.0885398  36.1037364  45.0586467  27.0309437
  35.3807364  45.9256467  26.5259437  35.8257364  43.7596467  26.9539437
  36.4573961  43.0698751  27.3351529  34.6397364  43.2946467  26.2489437
  34.5289112  43.8309131  25.3064814  34.7677364  41.8006467  25.9489437
  35.7474410  41.6476470  25.4963189  34.7235941  41.2772524  26.9040405
  33.6937364  41.2576467  25.0249437  32.7294033  41.3698061  25.5205069
  33.7018249  41.8484190  24.1089608  33.9207364  39.7966467  24.6859437
  34.8886258  39.6951783  24.1950331  33.9193843  39.2165530  25.6087595
  32.8297364  39.2826467  23.7639437  31.8721210  39.4175358  24.2668139
  32.8486189  39.8809151  22.8530005  33.0097364  37.8476467  23.4179437
  32.9918386  37.2930582  24.2618697  32.2627828  37.5527873  22.8053931
  33.8968358  37.7225070  22.9515816  33.3697364  43.5856467  27.0369437
  32.3167364  43.8406467  26.4419437  33.4527364  43.5906467  28.3629437
  34.3401124  43.4090818  28.8098187  32.2777364  43.7696467  29.2069437
  31.4311987  43.2654675  28.7408144  32.5217364  43.1466467  30.5769437
  33.3608951  43.6471869  31.0600297  31.6290385  43.2594269  31.1921440
  32.7499642  42.0873001  30.4594874  31.9057364  45.2486467  29.3219437
  32.4027364  46.1066467  28.5859437  31.0187364  45.5546467  30.2629437
  30.6695345  44.8165785  30.8574291  30.4937364  46.9026467  30.4529437
  30.1651170  47.3154354  29.4991544  29.3027364  46.8636467  31.4029437
  29.6115248  46.4648127  32.3692151  28.8976403  47.8666395  31.5371181
  28.1727364  46.0056467  30.9269437  27.2577364  46.4876467  30.0109437
  27.3664648  47.5043347  29.6332884  26.2127364  45.6956467  29.5729437
  25.4961425  46.0854188  28.8499834  26.0777364  44.4066467  30.0539437
  25.2553172  43.7794228  29.7099715  26.9837364  43.9146467  30.9689437
  26.8799773  42.8993125  31.3516063  28.0257364  44.7126467  31.4009437
  28.7446370  44.3264291  32.1235208  31.5277364  47.8716467  30.9979437
  31.1737364  49.0636467  31.1989437  32.6877364  47.4336467  31.2219437
  32.9057487  46.4646120  31.0387924  33.3995613  48.0515871  31.5846484
  35.6418553  55.8324913  62.9038903  35.1258553  50.3104913  28.3724083
  42.4228553  25.9272753  42.6836493  15.1340113  48.0063833  27.1014083
  29.6650113  45.2993833  78.9451313  44.4958553  51.0154913  20.5864083
  29.0260113  24.1252753  62.9808903  15.5300113  40.4643833  68.0758903
  29.3150113  14.0272753  40.8566493  33.6548553  64.2634913  57.5798903
  28.9990113  34.5713833  14.3391673  48.2408553  30.8163833  55.0516493
  26.5970113  60.4504913  72.9108903  28.3440113  58.9964913  33.0584083
  15.8880113  32.3783833  50.8436493  43.9018553  48.1053833  73.6098903
  47.4778553  45.4073833  37.0884083  37.7548553  16.8752753  52.1976493
  25.5030113  25.4132753  31.3514083  25.6310113  51.0154913  20.5864083
  29.3760113  30.8163833  74.0578903  31.9058553  32.8383833  28.1854083
  24.9340113  31.2343833  66.8268903  42.9398553  21.8462753  51.6646493
  24.2930113  55.5204913  26.3074083  37.5118553  49.5534913  77.6671313
  31.7558553  61.4094913  65.4318903  24.0540113  20.2552753  39.9936493
  18.4340113  47.5013833  56.6458903  26.5970113  41.9723833  15.8921673
  46.0758553  51.5704913  29.3624083  30.9920113  19.9422753  56.4636493
  27.1260113  38.0863833  77.1371313  31.9058553  51.3164913  47.1916493
  46.0758553  33.0923833  48.3686493  35.8198553  51.7194913  19.8284083
  36.2388553  13.9702753  43.1636493  43.7988553  49.7124913  66.8268903
  33.5518553  26.9172753  23.7124083  16.7650113  38.6753833  46.6196493
  20.2740113  55.8504913  72.7798903  16.9550113  51.7194913  19.8284083
  19.0510113  40.4773833  66.6988903  45.4618553  41.9723833  34.8984083
  31.4650113  64.5364913  53.7936493  30.5300113  60.5744913  33.6634083
  50.8626993  72.7465993  77.9371313  50.0846993  72.9085993  77.5771313
  50.9016993  71.8755993  77.9591313  50.7536993  72.6415993  77.8871313
  57.9106993  68.9855993  80.4581313  57.8406993  69.6625993  79.9121313
  58.6516993  68.5975993  80.2091313  58.0096993  69.0285993  80.3401313
  52.5056993  76.2105993  81.8871313  52.0436993  75.8185993  81.2601313
  53.2056993  75.6975993  81.9791313  52.5406993  76.0775993  81.8081313
  57.0136993  71.8205993  87.2341313  57.6916993  71.8385993  86.6851313
  56.9686993  70.9845993  87.4791313  57.1066993  71.6995993  87.1891313
  54.5066993  74.3105993  81.9101313  55.3236993  74.1235993  82.1531313
  54.0296993  73.6965993  82.3061313  54.5566993  74.1925993  82.0051313
  60.7356993  73.8715993  92.0701313  59.8876993  73.7725993  91.8921313
  60.7646993  74.6165993  92.5241313  60.6146993  73.9675993  92.1111313
  55.1036993  69.4045993  81.1761313  54.8076993  69.9055993  80.5261313
  55.9706993  69.4825993  81.1191313  55.1876993  69.4905993  81.0721313
  58.0826993  68.5465993  83.3991313  58.1556993  69.4065993  83.5281313
  58.0446993  68.4715993  82.5311313  58.0876993  68.6625993  83.2901313
  50.9616993  73.9715993  84.9001313  50.7056993  74.8025993  84.8251313
  50.2976993  73.5885993  85.3171313  50.8256993  74.0375993  84.9511313
  53.9906993  68.7885993  85.3911313  53.4696993  68.1605993  85.0831313
  54.5816993  68.3515993  85.8621313  54.0016993  68.6305993  85.4151313
  50.3776993  71.0665993  91.2591313  50.3736993  71.6535993  91.9051313
  50.9716993  71.3785993  90.7021313  50.4646993  71.1995993  91.2721313
  51.3146993  70.6615993  80.1741313  51.2006993  69.7975993  80.2051313
  50.8396993  70.9555993  80.8441313  51.2276993  70.5775993  80.2771313
  60.6186993  71.8695993  78.9191313  60.1106993  71.2075993  78.6651313
  60.6706993  72.3735993  78.2091313  60.5516993  71.8465993  78.7771313
  59.2166993  71.1775993  83.3321313  59.2906993  71.7455993  82.6741313
  59.3376993  71.6695993  84.0421313  59.2446993  71.3345993  83.3401313
  53.8246993  67.0005993  81.6801313  54.3606993  67.6885993  81.6701313
  53.8276993  66.7265993  80.8521313  53.9036993  67.0615993  81.5561313
  54.2726993  70.8105993  83.3341313  54.5446993  70.3805993  82.6261313
  54.0966993  70.1745993  83.9051313  54.2866993  70.6535993  83.3141313
  52.4136993  71.9125993  86.4161313  53.2566993  72.1325993  86.3731313
  52.0246993  72.4855993  85.8851313  52.4806993  72.0295993  86.3311313
  50.6866993  76.5715993  79.5411313  50.5016993  75.7325993  79.6931313
  51.3456993  76.5355993  78.9711313  50.7566993  76.4425993  79.4791313
  57.9746993  70.9695993  78.3991313  57.9726993  70.8525993  77.5341313
  57.7936993  71.8175993  78.4911313  57.9476993  71.0775993  78.2851313
  54.3276993  73.8015993  78.0331313  54.1996993  73.3535993  78.7711313
  53.7456993  73.4595993  77.4811313  54.2226993  73.6845993  78.0611313
  54.4946993  75.6315993  84.6321313  53.7136993  75.5725993  84.2491313
  54.5666993  74.8795993  85.0691313  54.3896993  75.5125993  84.6401313
  54.9246993  75.3685993  88.1001313  54.9496993  74.6935993  87.5491313
  54.2786993  75.8645993  87.7881313  54.8336993  75.3415993  87.9731313
  59.5946993  72.5205993  85.7321313  60.0746993  73.2195993  85.9401313
  59.9676993  71.8735993  86.1831313  59.7206993  72.5285993  85.8291313
  56.3766993  68.0315993  77.6671313  56.4736993  67.9245993  78.5281313
  55.6686993  68.5375993  77.6021313  56.2866993  68.0905993  77.7851313
  53.4986993  76.3385993  78.9101313  53.8226993  75.5595993  78.6881313
  54.1446993  76.7065993  79.3651313  53.6416993  76.2775993  78.9441313
  50.4956993  67.9995993  79.8781313  50.6246993  67.2915993  79.3861313
  50.1286993  67.6815993  80.6031313  50.4606993  67.8475993  79.9131313
  60.1886993  75.6805993  80.3351313  60.2476993  76.3305993  80.9141313
  59.9996993  74.9845993  80.8261313  60.1696993  75.6735993  80.4931313
  54.6846993  70.1975993  76.8471313  54.1736993  70.2505993  76.1411313
  55.4686993  70.4375993  76.5511313  54.7246993  70.2405993  76.6991313
  56.4896993  72.5915993  83.8171313  57.3356993  72.4015993  83.9151313
  56.1196993  71.8145993  83.6791313  56.5596993  72.4485993  83.8111313
  51.3106993  73.9295993  80.4721313  51.7996993  73.6375993  81.1331313
  51.4396993  73.3365993  79.8451313  51.4016993  73.7985993  80.4771313
  55.8356993  75.3635993  75.9581313  55.2256993  74.9585993  76.4321313
  55.4496993  75.4815993  75.1851313  55.6886993  75.3205993  75.9141313
  57.2906993  73.8245993  78.6681313  57.5626993  74.6505993  78.7351313
  56.4276993  73.8995993  78.5721313  57.2036993  73.9575993  78.6631313
  50.7706993  69.7945993  85.2041313  50.8146993  70.1385993  84.4031313
  51.5256993  70.0315993  85.5711313  50.8886993  69.8805993  85.1401313
  59.9096993  76.7065993  87.4691313  60.3856993  77.0805993  88.0971313
  59.0866993  76.8405993  87.7281313  59.8586993  76.7815993  87.6001313
  56.6196993  72.3095993  90.2101313  56.7806993  71.5655993  90.6371313
  56.5746993  72.0605993  89.3751313  56.6366993  72.1625993  90.1501313
  58.3716993  68.1175993  90.0901313  59.0766993  68.4375993  89.6881313
  58.6126993  67.3105993  90.3171313  58.5106993  68.0455993  90.0641313
  54.8806993  73.1705993  86.1511313  55.3206993  73.0675993  85.4051313
  55.4256993  72.8575993  86.7561313  55.0256993  73.1095993  86.1301313
  58.4276993  68.1555993  86.1981313  57.6016993  68.0065993  86.4351313
  58.3876993  68.1905993  85.3271313  58.2996993  68.1385993  86.1041313
  50.9926993  68.5535993  92.2331313  50.8526993  69.3485993  91.9021313
  50.2066993  68.3105993  92.5221313  50.8556993  68.6355993  92.2271313
  54.0566993  71.2975993  79.4581313  54.1826993  70.9685993  78.6601313
  53.2446993  71.0485993  79.6571313  53.9556993  71.2125993  79.3701313
  54.0336993  73.3085993  89.8741313  54.4086993  73.9275993  89.3871313
  54.7076993  72.8345993  90.1591313  54.1886993  73.3305993  89.8441313
  51.8086993  71.7565993  89.1491313  51.8856993  71.5875993  88.2961313
  52.5546993  72.1625993  89.3461313  51.9296993  71.7915993  89.0521313
  54.3626993  69.1665993  91.5601313  54.2816993  68.3225993  91.7661313
  54.0486993  69.2105993  90.7471313  54.3046993  69.0485993  91.4701313
  51.2056993  76.9825993  89.3731313  51.5256993  77.2015993  88.5921313
  51.1056993  76.1175993  89.3181313  51.2376993  76.8875993  89.2501313
  52.6616993  72.9185993  75.9911313  51.9896993  72.9325993  76.5471313
  52.7566993  72.0705993  75.8071313  52.5766993  72.7955993  76.0461313
  55.9686993  76.2745993  90.7581313  55.5726993  77.0485993  90.8331313
  55.5626993  75.9015993  90.0821313  55.8506993  76.3335993  90.6691313
  56.3976993  69.2515993  88.2081313  55.5336993  69.3355993  88.2881313
  56.6176993  68.7375993  88.8771313  56.3026993  69.1885993  88.3191313
  58.0036993  74.3285993  91.7861313  57.6816993  73.7525993  91.2161313
  57.6446993  75.0835993  91.5401313  57.9036993  74.3545993  91.6661313
  58.7996993  67.5805993  76.4131313  58.8776993  67.8275993  75.5801313
  58.0566993  67.9575993  76.6711313  58.7016993  67.6725993  76.3281313
  53.6176993  69.3345993  88.8561313  53.2746993  68.5675993  88.6221313
  52.9226993  69.8585993  88.9201313  53.4646993  69.2985993  88.8311313
  52.2706993  72.6485993  82.8121313  51.9026993  72.9505993  83.5431313
  52.8046993  72.0195993  83.0961313  52.2946993  72.6005993  82.9621313
  57.9116993  76.7205993  78.8261313  58.0116993  76.8595993  77.9711313
  58.7296993  76.6605993  79.1221313  58.0466993  76.7315993  78.7431313
  57.0506993  69.6955993  91.9421313  57.2846993  69.1195993  91.3291313
  56.2086993  69.5145993  92.0831313  56.9606993  69.5835993  91.8721313
  50.8626993  72.7465993  58.9308903  50.0846993  72.9085993  58.5708903
  50.9016993  71.8755993  58.9528903  50.7536993  72.6415993  58.8808903
  57.9106993  68.9855993  61.4518903  57.8406993  69.6625993  60.9058903
  58.6516993  68.5975993  61.2028903  58.0096993  69.0285993  61.3338903
  52.5056993  76.2105993  62.8808903  52.0436993  75.8185993  62.2538903
  53.2056993  75.6975993  62.9728903  52.5406993  76.0775993  62.8018903
  57.0136993  71.8205993  68.2278903  57.6916993  71.8385993  67.6788903
  56.9686993  70.9845993  68.4728903  57.1066993  71.6995993  68.1828903
  54.5066993  74.3105993  62.9038903  55.3236993  74.1235993  63.1468903
  54.0296993  73.6965993  63.2998903  54.5566993  74.1925993  62.9988903
  60.7356993  73.8715993  73.0638903  59.8876993  73.7725993  72.8858903
  60.7646993  74.6165993  73.5178903  60.6146993  73.9675993  73.1048903
  55.1036993  69.4045993  62.1698903  54.8076993  69.9055993  61.5198903
  55.9706993  69.4825993  62.1128903  55.1876993  69.4905993  62.0658903
  58.0826993  68.5465993  64.3928903  58.1556993  69.4065993  64.5218903
  58.0446993  68.4715993  63.5248903  58.0876993  68.6625993  64.2838903
  50.9616993  73.9715993  65.8938903  50.7056993  74.8025993  65.8188903
  50.2976993  73.5885993  66.3108903  50.8256993  74.0375993  65.9448903
  53.9906993  68.7885993  66.3848903  53.4696993  68.1605993  66.0768903
  54.5816993  68.3515993  66.8558903  54.0016993  68.6305993  66.4088903
  57.2966993  70.9215993  75.6828903  57.4136993  70.4675993  74.9468903
  57.5846993  71.7195993  75.4798903  57.3566993  70.9725993  75.5438903
  53.0296993  70.5185993  74.6668903  52.2516993  70.1285993  74.5948903
  53.5206993  70.1065993  74.0758903  52.9866993  70.3995993  74.5688903
  59.6786993  68.1615993  73.8348903  59.8566993  67.3525993  73.5598903
  59.5356993  68.6025993  73.0958903  59.6836993  68.1075993  73.6848903
  50.3776993  71.0665993  72.2528903  50.3736993  71.6535993  72.8988903
  50.9716993  71.3785993  71.6958903  50.4646993  71.1995993  72.2658903
  51.3146993  70.6615993  61.1678903  51.2006993  69.7975993  61.1988903
  50.8396993  70.9555993  61.8378903  51.2276993  70.5775993  61.2708903
  60.6186993  71.8695993  59.9128903  60.1106993  71.2075993  59.6588903
  60.6706993  72.3735993  59.2028903  60.5516993  71.8465993  59.7708903
  59.2166993  71.1775993  64.3258903  59.2906993  71.7455993  63.6678903
  59.3376993  71.6695993  65.0358903  59.2446993  71.3345993  64.3338903
  53.8246993  67.0005993  62.6738903  54.3606993  67.6885993  62.6638903
  53.8276993  66.7265993  61.8458903  53.9036993  67.0615993  62.5498903
  54.2726993  70.8105993  64.3278903  54.5446993  70.3805993  63.6198903
  54.0966993  70.1745993  64.8988903  54.2866993  70.6535993  64.3078903
  52.4136993  71.9125993  67.4098903  53.2566993  72.1325993  67.3668903
  52.0246993  72.4855993  66.8788903  52.4806993  72.0295993  67.3248903
  58.2676993  73.5975993  75.5278903  57.7836993  74.1745993  75.9698903
  58.2396993  73.8925993  74.7068903  58.1916993  73.7265993  75.4718903
  50.6866993  76.5715993  60.5348903  50.5016993  75.7325993  60.6868903
  51.3456993  76.5355993  59.9648903  50.7566993  76.4425993  60.4728903
  57.9746993  70.9695993  59.3928903  57.9726993  70.8525993  58.5278903
  57.7936993  71.8175993  59.4848903  57.9476993  71.0775993  59.2788903
  53.8426993  74.4045993  73.8868903  53.3066993  73.8985993  74.3548903
  53.8626993  74.0145993  73.1068903  53.7656993  74.2715993  73.8408903
  54.3276993  73.8015993  59.0268903  54.1996993  73.3535993  59.7648903
  53.7456993  73.4595993  58.4748903  54.2226993  73.6845993  59.0548903
  54.4946993  75.6315993  65.6258903  53.7136993  75.5725993  65.2428903
  54.5666993  74.8795993  66.0628903  54.3896993  75.5125993  65.6338903
  54.9246993  75.3685993  69.0938903  54.9496993  74.6935993  68.5428903
  54.2786993  75.8645993  68.7818903  54.8336993  75.3415993  68.9668903
  52.7236993  76.7235993  74.6528903  52.6866993  77.2245993  73.9388903
  53.0546993  75.9715993  74.3578903  52.7666993  76.6855993  74.5038903
  59.5946993  72.5205993  66.7258903  60.0746993  73.2195993  66.9338903
  59.9676993  71.8735993  67.1768903  59.7206993  72.5285993  66.8228903
  56.3766993  68.0315993  58.6608903  56.4736993  67.9245993  59.5218903
  55.6686993  68.5375993  58.5958903  56.2866993  68.0905993  58.7788903
  53.4986993  76.3385993  59.9038903  53.8226993  75.5595993  59.6818903
  54.1446993  76.7065993  60.3588903  53.6416993  76.2775993  59.9378903
  50.4956993  67.9995993  60.8718903  50.6246993  67.2915993  60.3798903
  50.1286993  67.6815993  61.5968903  50.4606993  67.8475993  60.9068903
  60.1886993  75.6805993  61.3288903  60.2476993  76.3305993  61.9078903
  59.9996993  74.9845993  61.8198903  60.1696993  75.6735993  61.4868903
  54.6846993  70.1975993  57.8408903  54.1736993  70.2505993  57.1348903
  55.4686993  70.4375993  57.5448903  54.7246993  70.2405993  57.6928903
  56.4896993  72.5915993  64.8108903  57.3356993  72.4015993  64.9088903
  56.1196993  71.8145993  64.6728903  56.5596993  72.4485993  64.8048903
  51.3106993  73.9295993  61.4658903  51.7996993  73.6375993  62.1268903
  51.4396993  73.3365993  60.8388903  51.4016993  73.7985993  61.4708903
  55.8356993  75.3635993  56.9518903  55.2256993  74.9585993  57.4258903
  55.4496993  75.4815993  56.1788903  55.6886993  75.3205993  56.9078903
  57.2906993  73.8245993  59.6618903  57.5626993  74.6505993  59.7288903
  56.4276993  73.8995993  59.5658903  57.2036993  73.9575993  59.6568903
  50.7706993  69.7945993  66.1978903  50.8146993  70.1385993  65.3968903
  51.5256993  70.0315993  66.5648903  50.8886993  69.8805993  66.1338903
  59.9096993  76.7065993  68.4628903  60.3856993  77.0805993  69.0908903
  59.0866993  76.8405993  68.7218903  59.8586993  76.7815993  68.5938903
  56.6196993  72.3095993  71.2038903  56.7806993  71.5655993  71.6308903
  56.5746993  72.0605993  70.3688903  56.6366993  72.1625993  71.1438903
  58.3716993  68.1175993  71.0838903  59.0766993  68.4375993  70.6818903
  58.6126993  67.3105993  71.3108903  58.5106993  68.0455993  71.0578903
  54.8806993  73.1705993  67.1448903  55.3206993  73.0675993  66.3988903
  55.4256993  72.8575993  67.7498903  55.0256993  73.1095993  67.1238903
  58.4276993  68.1555993  67.1918903  57.6016993  68.0065993  67.4288903
  58.3876993  68.1905993  66.3208903  58.2996993  68.1385993  67.0978903
  50.9926993  68.5535993  73.2268903  50.8526993  69.3485993  72.8958903
  50.2066993  68.3105993  73.5158903  50.8556993  68.6355993  73.2208903
  54.0566993  71.2975993  60.4518903  54.1826993  70.9685993  59.6538903
  53.2446993  71.0485993  60.6508903  53.9556993  71.2125993  60.3638903
  54.0336993  73.3085993  70.8678903  54.4086993  73.9275993  70.3808903
  54.7076993  72.8345993  71.1528903  54.1886993  73.3305993  70.8378903
  51.8086993  71.7565993  70.1428903  51.8856993  71.5875993  69.2898903
  52.5546993  72.1625993  70.3398903  51.9296993  71.7915993  70.0458903
  54.3626993  69.1665993  72.5538903  54.2816993  68.3225993  72.7598903
  54.0486993  69.2105993  71.7408903  54.3046993  69.0485993  72.4638903
  51.2056993  76.9825993  70.3668903  51.5256993  77.2015993  69.5858903
  51.1056993  76.1175993  70.3118903  51.2376993  76.8875993  70.2438903
  52.6616993  72.9185993  56.9848903  51.9896993  72.9325993  57.5408903
  52.7566993  72.0705993  56.8008903  52.5766993  72.7955993  57.0398903
  55.9686993  76.2745993  71.7518903  55.5726993  77.0485993  71.8268903
  55.5626993  75.9015993  71.0758903  55.8506993  76.3335993  71.6628903
  56.3976993  69.2515993  69.2018903  55.5336993  69.3355993  69.2818903
  56.6176993  68.7375993  69.8708903  56.3026993  69.1885993  69.3128903
  58.0036993  74.3285993  72.7798903  57.6816993  73.7525993  72.2098903
  57.6446993  75.0835993  72.5338903  57.9036993  74.3545993  72.6598903
  58.7996993  67.5805993  57.4068903  58.8776993  67.8275993  56.5738903
  58.0566993  67.9575993  57.6648903  58.7016993  67.6725993  57.3218903
  53.6176993  69.3345993  69.8498903  53.2746993  68.5675993  69.6158903
  52.9226993  69.8585993  69.9138903  53.4646993  69.2985993  69.8248903
  52.2706993  72.6485993  63.8058903  51.9026993  72.9505993  64.5368903
  52.8046993  72.0195993  64.0898903  52.2946993  72.6005993  63.9558903
  57.9116993  76.7205993  59.8198903  58.0116993  76.8595993  58.9648903
  58.7296993  76.6605993  60.1158903  58.0466993  76.7315993  59.7368903
  57.0506993  69.6955993  72.9358903  57.2846993  69.1195993  72.3228903
  56.2086993  69.5145993  73.0768903  56.9606993  69.5835993  72.8658903
  50.8626993  72.7465993  39.9246493  50.0846993  72.9085993  39.5646493
  50.9016993  71.8755993  39.9466493  50.7536993  72.6415993  39.8746493
  57.9106993  68.9855993  42.4456493  57.8406993  69.6625993  41.8996493
  58.6516993  68.5975993  42.1966493  58.0096993  69.0285993  42.3276493
  52.5056993  76.2105993  43.8746493  52.0436993  75.8185993  43.2476493
  53.2056993  75.6975993  43.9666493  52.5406993  76.0775993  43.7956493
  57.0136993  71.8205993  49.2216493  57.6916993  71.8385993  48.6726493
  56.9686993  70.9845993  49.4666493  57.1066993  71.6995993  49.1766493
  54.5066993  74.3105993  43.8976493  55.3236993  74.1235993  44.1406493
  54.0296993  73.6965993  44.2936493  54.5566993  74.1925993  43.9926493
  60.7356993  73.8715993  54.0576493  59.8876993  73.7725993  53.8796493
  60.7646993  74.6165993  54.5116493  60.6146993  73.9675993  54.0986493
  55.1036993  69.4045993  43.1636493  54.8076993  69.9055993  42.5136493
  55.9706993  69.4825993  43.1066493  55.1876993  69.4905993  43.0596493
  58.0826993  68.5465993  45.3866493  58.1556993  69.4065993  45.5156493
  58.0446993  68.4715993  44.5186493  58.0876993  68.6625993  45.2776493
  50.9616993  73.9715993  46.8876493  50.7056993  74.8025993  46.8126493
  50.2976993  73.5885993  47.3046493  50.8256993  74.0375993  46.9386493
  53.9906993  68.7885993  47.3786493  53.4696993  68.1605993  47.0706493
  54.5816993  68.3515993  47.8496493  54.0016993  68.6305993  47.4026493
  57.2966993  70.9215993  56.6766493  57.4136993  70.4675993  55.9406493
  57.5846993  71.7195993  56.4736493  57.3566993  70.9725993  56.5376493
  53.0296993  70.5185993  55.6606493  52.2516993  70.1285993  55.5886493
  53.5206993  70.1065993  55.0696493  52.9866993  70.3995993  55.5626493
  59.6786993  68.1615993  54.8286493  59.8566993  67.3525993  54.5536493
  59.5356993  68.6025993  54.0896493  59.6836993  68.1075993  54.6786493
  50.3776993  71.0665993  53.2466493  50.3736993  71.6535993  53.8926493
  50.9716993  71.3785993  52.6896493  50.4646993  71.1995993  53.2596493
  51.3146993  70.6615993  42.1616493  51.2006993  69.7975993  42.1926493
  50.8396993  70.9555993  42.8316493  51.2276993  70.5775993  42.2646493
  60.6186993  71.8695993  40.9066493  60.1106993  71.2075993  40.6526493
  60.6706993  72.3735993  40.1966493  60.5516993  71.8465993  40.7646493
  59.2166993  71.1775993  45.3196493  59.2906993  71.7455993  44.6616493
  59.3376993  71.6695993  46.0296493  59.2446993  71.3345993  45.3276493
  53.8246993  67.0005993  43.6676493  54.3606993  67.6885993  43.6576493
  53.8276993  66.7265993  42.8396493  53.9036993  67.0615993  43.5436493
  54.2726993  70.8105993  45.3216493  54.5446993  70.3805993  44.6136493
  54.0966993  70.1745993  45.8926493  54.2866993  70.6535993  45.3016493
  52.4136993  71.9125993  48.4036493  53.2566993  72.1325993  48.3606493
  52.0246993  72.4855993  47.8726493  52.4806993  72.0295993  48.3186493
  58.2676993  73.5975993  56.5216493  57.7836993  74.1745993  56.9636493
  58.2396993  73.8925993  55.7006493  58.1916993  73.7265993  56.4656493
  50.6866993  76.5715993  41.5286493  50.5016993  75.7325993  41.6806493
  51.3456993  76.5355993  40.9586493  50.7566993  76.4425993  41.4666493
  57.9746993  70.9695993  40.3866493  57.9726993  70.8525993  39.5216493
  57.7936993  71.8175993  40.4786493  57.9476993  71.0775993  40.2726493
  53.8426993  74.4045993  54.8806493  53.3066993  73.8985993  55.3486493
  53.8626993  74.0145993  54.1006493  53.7656993  74.2715993  54.8346493
  54.3276993  73.8015993  40.0206493  54.1996993  73.3535993  40.7586493
  53.7456993  73.4595993  39.4686493  54.2226993  73.6845993  40.0486493
  54.4946993  75.6315993  46.6196493  53.7136993  75.5725993  46.2366493
  54.5666993  74.8795993  47.0566493  54.3896993  75.5125993  46.6276493
  54.9246993  75.3685993  50.0876493  54.9496993  74.6935993  49.5366493
  54.2786993  75.8645993  49.7756493  54.8336993  75.3415993  49.9606493
  52.7236993  76.7235993  55.6466493  52.6866993  77.2245993  54.9326493
  53.0546993  75.9715993  55.3516493  52.7666993  76.6855993  55.4976493
  59.5946993  72.5205993  47.7196493  60.0746993  73.2195993  47.9276493
  59.9676993  71.8735993  48.1706493  59.7206993  72.5285993  47.8166493
  56.3766993  68.0315993  39.6546493  56.4736993  67.9245993  40.5156493
  55.6686993  68.5375993  39.5896493  56.2866993  68.0905993  39.7726493
  53.4986993  76.3385993  40.8976493  53.8226993  75.5595993  40.6756493
  54.1446993  76.7065993  41.3526493  53.6416993  76.2775993  40.9316493
  50.4956993  67.9995993  41.8656493  50.6246993  67.2915993  41.3736493
  50.1286993  67.6815993  42.5906493  50.4606993  67.8475993  41.9006493
  60.1886993  75.6805993  42.3226493  60.2476993  76.3305993  42.9016493
  59.9996993  74.9845993  42.8136493  60.1696993  75.6735993  42.4806493
  54.6846993  70.1975993  38.8346493  54.1736993  70.2505993  38.1286493
  55.4686993  70.4375993  38.5386493  54.7246993  70.2405993  38.6866493
  56.4896993  72.5915993  45.8046493  57.3356993  72.4015993  45.9026493
  56.1196993  71.8145993  45.6666493  56.5596993  72.4485993  45.7986493
  51.3106993  73.9295993  42.4596493  51.7996993  73.6375993  43.1206493
  51.4396993  73.3365993  41.8326493  51.4016993  73.7985993  42.4646493
  55.8356993  75.3635993  37.9456493  55.2256993  74.9585993  38.4196493
  55.4496993  75.4815993  37.1726493  55.6886993  75.3205993  37.9016493
  57.2906993  73.8245993  40.6556493  57.5626993  74.6505993  40.7226493
  56.4276993  73.8995993  40.5596493  57.2036993  73.9575993  40.6506493
  50.7706993  69.7945993  47.1916493  50.8146993  70.1385993  46.3906493
  51.5256993  70.0315993  47.5586493  50.8886993  69.8805993  47.1276493
  59.9096993  76.7065993  49.4566493  60.3856993  77.0805993  50.0846493
  59.0866993  76.8405993  49.7156493  59.8586993  76.7815993  49.5876493
  56.6196993  72.3095993  52.1976493  56.7806993  71.5655993  52.6246493
  56.5746993  72.0605993  51.3626493  56.6366993  72.1625993  52.1376493
  58.3716993  68.1175993  52.0776493  59.0766993  68.4375993  51.6756493
  58.6126993  67.3105993  52.3046493  58.5106993  68.0455993  52.0516493
  54.8806993  73.1705993  48.1386493  55.3206993  73.0675993  47.3926493
  55.4256993  72.8575993  48.7436493  55.0256993  73.1095993  48.1176493
  58.4276993  68.1555993  48.1856493  57.6016993  68.0065993  48.4226493
  58.3876993  68.1905993  47.3146493  58.2996993  68.1385993  48.0916493
  50.9926993  68.5535993  54.2206493  50.8526993  69.3485993  53.8896493
  50.2066993  68.3105993  54.5096493  50.8556993  68.6355993  54.2146493
  54.0566993  71.2975993  41.4456493  54.1826993  70.9685993  40.6476493
  53.2446993  71.0485993  41.6446493  53.9556993  71.2125993  41.3576493
  54.0336993  73.3085993  51.8616493  54.4086993  73.9275993  51.3746493
  54.7076993  72.8345993  52.1466493  54.1886993  73.3305993  51.8316493
  51.8086993  71.7565993  51.1366493  51.8856993  71.5875993  50.2836493
  52.5546993  72.1625993  51.3336493  51.9296993  71.7915993  51.0396493
  54.3626993  69.1665993  53.5476493  54.2816993  68.3225993  53.7536493
  54.0486993  69.2105993  52.7346493  54.3046993  69.0485993  53.4576493
  51.2056993  76.9825993  51.3606493  51.5256993  77.2015993  50.5796493
  51.1056993  76.1175993  51.3056493  51.2376993  76.8875993  51.2376493
  52.6616993  72.9185993  37.9786493  51.9896993  72.9325993  38.5346493
  52.7566993  72.0705993  37.7946493  52.5766993  72.7955993  38.0336493
  55.9686993  76.2745993  52.7456493  55.5726993  77.0485993  52.8206493
  55.5626993  75.9015993  52.0696493  55.8506993  76.3335993  52.6566493
  56.3976993  69.2515993  50.1956493  55.5336993  69.3355993  50.2756493
  56.6176993  68.7375993  50.8646493  56.3026993  69.1885993  50.3066493
  58.0036993  74.3285993  53.7736493  57.6816993  73.7525993  53.2036493
  57.6446993  75.0835993  53.5276493  57.9036993  74.3545993  53.6536493
  58.7996993  67.5805993  38.4006493  58.8776993  67.8275993  37.5676493
  58.0566993  67.9575993  38.6586493  58.7016993  67.6725993  38.3156493
  53.6176993  69.3345993  50.8436493  53.2746993  68.5675993  50.6096493
  52.9226993  69.8585993  50.9076493  53.4646993  69.2985993  50.8186493
  52.2706993  72.6485993  44.7996493  51.9026993  72.9505993  45.5306493
  52.8046993  72.0195993  45.0836493  52.2946993  72.6005993  44.9496493
  57.9116993  76.7205993  40.8136493  58.0116993  76.8595993  39.9586493
  58.7296993  76.6605993  41.1096493  58.0466993  76.7315993  40.7306493
  57.0506993  69.6955993  53.9296493  57.2846993  69.1195993  53.3166493
  56.2086993  69.5145993  54.0706493  56.9606993  69.5835993  53.8596493
  50.8626993  72.7465993  20.9184083  50.0846993  72.9085993  20.5584083
  50.9016993  71.8755993  20.9404083  50.7536993  72.6415993  20.8684083
  57.9106993  68.9855993  23.4394083  57.8406993  69.6625993  22.8934083
  58.6516993  68.5975993  23.1904083  58.0096993  69.0285993  23.3214083
  52.5056993  76.2105993  24.8684083  52.0436993  75.8185993  24.2414083
  53.2056993  75.6975993  24.9604083  52.5406993  76.0775993  24.7894083
  57.0136993  71.8205993  30.2154083  57.6916993  71.8385993  29.6664083
  56.9686993  70.9845993  30.4604083  57.1066993  71.6995993  30.1704083
  54.5066993  74.3105993  24.8914083  55.3236993  74.1235993  25.1344083
  54.0296993  73.6965993  25.2874083  54.5566993  74.1925993  24.9864083
  60.7356993  73.8715993  35.0514083  59.8876993  73.7725993  34.8734083
  60.7646993  74.6165993  35.5054083  60.6146993  73.9675993  35.0924083
  55.1036993  69.4045993  24.1574083  54.8076993  69.9055993  23.5074083
  55.9706993  69.4825993  24.1004083  55.1876993  69.4905993  24.0534083
  58.0826993  68.5465993  26.3804083  58.1556993  69.4065993  26.5094083
  58.0446993  68.4715993  25.5124083  58.0876993  68.6625993  26.2714083
  50.9616993  73.9715993  27.8814083  50.7056993  74.8025993  27.8064083
  50.2976993  73.5885993  28.2984083  50.8256993  74.0375993  27.9324083
  53.9906993  68.7885993  28.3724083  53.4696993  68.1605993  28.0644083
  54.5816993  68.3515993  28.8434083  54.0016993  68.6305993  28.3964083
  57.2966993  70.9215993  37.6704083  57.4136993  70.4675993  36.9344083
  57.5846993  71.7195993  37.4674083  57.3566993  70.9725993  37.5314083
  53.0296993  70.5185993  36.6544083  52.2516993  70.1285993  36.5824083
  53.5206993  70.1065993  36.0634083  52.9866993  70.3995993  36.5564083
  59.6786993  68.1615993  35.8224083  59.8566993  67.3525993  35.5474083
  59.5356993  68.6025993  35.0834083  59.6836993  68.1075993  35.6724083
  50.3776993  71.0665993  34.2404083  50.3736993  71.6535993  34.8864083
  50.9716993  71.3785993  33.6834083  50.4646993  71.1995993  34.2534083
  51.3146993  70.6615993  23.1554083  51.2006993  69.7975993  23.1864083
  50.8396993  70.9555993  23.8254083  51.2276993  70.5775993  23.2584083
  60.6186993  71.8695993  21.9004083  60.1106993  71.2075993  21.6464083
  60.6706993  72.3735993  21.1904083  60.5516993  71.8465993  21.7584083
  59.2166993  71.1775993  26.3134083  59.2906993  71.7455993  25.6554083
  59.3376993  71.6695993  27.0234083  59.2446993  71.3345993  26.3214083
  53.8246993  67.0005993  24.6614083  54.3606993  67.6885993  24.6514083
  53.8276993  66.7265993  23.8334083  53.9036993  67.0615993  24.5374083
  54.2726993  70.8105993  26.3154083  54.5446993  70.3805993  25.6074083
  54.0966993  70.1745993  26.8864083  54.2866993  70.6535993  26.2954083
  52.4136993  71.9125993  29.3974083  53.2566993  72.1325993  29.3544083
  52.0246993  72.4855993  28.8664083  52.4806993  72.0295993  29.3124083
  58.2676993  73.5975993  37.5154083  57.7836993  74.1745993  37.9574083
  58.2396993  73.8925993  36.6944083  58.1916993  73.7265993  37.4594083
  50.6866993  76.5715993  22.5224083  50.5016993  75.7325993  22.6744083
  51.3456993  76.5355993  21.9524083  50.7566993  76.4425993  22.4604083
  57.9746993  70.9695993  21.3804083  57.9726993  70.8525993  20.5154083
  57.7936993  71.8175993  21.4724083  57.9476993  71.0775993  21.2664083
  53.8426993  74.4045993  35.8744083  53.3066993  73.8985993  36.3424083
  53.8626993  74.0145993  35.0944083  53.7656993  74.2715993  35.8284083
  54.3276993  73.8015993  21.0144083  54.1996993  73.3535993  21.7524083
  53.7456993  73.4595993  20.4624083  54.2226993  73.6845993  21.0424083
  54.4946993  75.6315993  27.6134083  53.7136993  75.5725993  27.2304083
  54.5666993  74.8795993  28.0504083  54.3896993  75.5125993  27.6214083
  54.9246993  75.3685993  31.0814083  54.9496993  74.6935993  30.5304083
  54.2786993  75.8645993  30.7694083  54.8336993  75.3415993  30.9544083
  52.7236993  76.7235993  36.6404083  52.6866993  77.2245993  35.9264083
  53.0546993  75.9715993  36.3454083  52.7666993  76.6855993  36.4914083
  59.5946993  72.5205993  28.7134083  60.0746993  73.2195993  28.9214083
  59.9676993  71.8735993  29.1644083  59.7206993  72.5285993  28.8104083
  56.3766993  68.0315993  20.6484083  56.4736993  67.9245993  21.5094083
  55.6686993  68.5375993  20.5834083  56.2866993  68.0905993  20.7664083
  53.4986993  76.3385993  21.8914083  53.8226993  75.5595993  21.6694083
  54.1446993  76.7065993  22.3464083  53.6416993  76.2775993  21.9254083
  50.4956993  67.9995993  22.8594083  50.6246993  67.2915993  22.3674083
  50.1286993  67.6815993  23.5844083  50.4606993  67.8475993  22.8944083
  60.1886993  75.6805993  23.3164083  60.2476993  76.3305993  23.8954083
  59.9996993  74.9845993  23.8074083  60.1696993  75.6735993  23.4744083
  54.6846993  70.1975993  19.8284083  54.1736993  70.2505993  19.1224083
  55.4686993  70.4375993  19.5324083  54.7246993  70.2405993  19.6804083
  56.4896993  72.5915993  26.7984083  57.3356993  72.4015993  26.8964083
  56.1196993  71.8145993  26.6604083  56.5596993  72.4485993  26.7924083
  51.3106993  73.9295993  23.4534083  51.7996993  73.6375993  24.1144083
  51.4396993  73.3365993  22.8264083  51.4016993  73.7985993  23.4584083
  55.8356993  75.3635993  18.9394083  55.2256993  74.9585993  19.4134083
  55.4496993  75.4815993  18.1664083  55.6886993  75.3205993  18.8954083
  57.2906993  73.8245993  21.6494083  57.5626993  74.6505993  21.7164083
  56.4276993  73.8995993  21.5534083  57.2036993  73.9575993  21.6444083
  50.7706993  69.7945993  28.1854083  50.8146993  70.1385993  27.3844083
  51.5256993  70.0315993  28.5524083  50.8886993  69.8805993  28.1214083
  59.9096993  76.7065993  30.4504083  60.3856993  77.0805993  31.0784083
  59.0866993  76.8405993  30.7094083  59.8586993  76.7815993  30.5814083
  56.6196993  72.3095993  33.1914083  56.7806993  71.5655993  33.6184083
  56.5746993  72.0605993  32.3564083  56.6366993  72.1625993  33.1314083
  58.3716993  68.1175993  33.0714083  59.0766993  68.4375993  32.6694083
  58.6126993  67.3105993  33.2984083  58.5106993  68.0455993  33.0454083
  54.8806993  73.1705993  29.1324083  55.3206993  73.0675993  28.3864083
  55.4256993  72.8575993  29.7374083  55.0256993  73.1095993  29.1114083
  58.4276993  68.1555993  29.1794083  57.6016993  68.0065993  29.4164083
  58.3876993  68.1905993  28.3084083  58.2996993  68.1385993  29.0854083
  50.9926993  68.5535993  35.2144083  50.8526993  69.3485993  34.8834083
  50.2066993  68.3105993  35.5034083  50.8556993  68.6355993  35.2084083
  54.0566993  71.2975993  22.4394083  54.1826993  70.9685993  21.6414083
  53.2446993  71.0485993  22.6384083  53.9556993  71.2125993  22.3514083
  54.0336993  73.3085993  32.8554083  54.4086993  73.9275993  32.3684083
  54.7076993  72.8345993  33.1404083  54.1886993  73.3305993  32.8254083
  51.8086993  71.7565993  32.1304083  51.8856993  71.5875993  31.2774083
  52.5546993  72.1625993  32.3274083  51.9296993  71.7915993  32.0334083
  54.3626993  69.1665993  34.5414083  54.2816993  68.3225993  34.7474083
  54.0486993  69.2105993  33.7284083  54.3046993  69.0485993  34.4514083
  51.2056993  76.9825993  32.3544083  51.5256993  77.2015993  31.5734083
  51.1056993  76.1175993  32.2994083  51.2376993  76.8875993  32.2314083
  52.6616993  72.9185993  18.9724083  51.9896993  72.9325993  19.5284083
  52.7566993  72.0705993  18.7884083  52.5766993  72.7955993  19.0274083
  55.9686993  76.2745993  33.7394083  55.5726993  77.0485993  33.8144083
  55.5626993  75.9015993  33.0634083  55.8506993  76.3335993  33.6504083
  56.3976993  69.2515993  31.1894083  55.5336993  69.3355993  31.2694083
  56.6176993  68.7375993  31.8584083  56.3026993  69.1885993  31.3004083
  58.0036993  74.3285993  34.7674083  57.6816993  73.7525993  34.1974083
  57.6446993  75.0835993  34.5214083  57.9036993  74.3545993  34.6474083
  58.7996993  67.5805993  19.3944083  58.8776993  67.8275993  18.5614083
  58.0566993  67.9575993  19.6524083  58.7016993  67.6725993  19.3094083
  53.6176993  69.3345993  31.8374083  53.2746993  68.5675993  31.6034083
  52.9226993  69.8585993  31.9014083  53.4646993  69.2985993  31.8124083
  52.2706993  72.6485993  25.7934083  51.9026993  72.9505993  26.5244083
  52.8046993  72.0195993  26.0774083  52.2946993  72.6005993  25.9434083
  57.9116993  76.7205993  21.8074083  58.0116993  76.8595993  20.9524083
  58.7296993  76.6605993  22.1034083  58.0466993  76.7315993  21.7244083
  57.0506993  69.6955993  34.9234083  57.2846993  69.1195993  34.3104083
  56.2086993  69.5145993  35.0644083  56.9606993  69.5835993  34.8534083
  57.9106993  68.9855993   4.4331673  57.8406993  69.6625993   3.8871673
  58.6516993  68.5975993   4.1841673  58.0096993  69.0285993   4.3151673
  52.5056993  76.2105993   5.8621673  52.0436993  75.8185993   5.2351673
  53.2056993  75.6975993   5.9541673  52.5406993  76.0775993   5.7831673
  57.0136993  71.8205993  11.2091673  57.6916993  71.8385993  10.6601673
  56.9686993  70.9845993  11.4541673  57.1066993  71.6995993  11.1641673
  54.5066993  74.3105993   5.8851673  55.3236993  74.1235993   6.1281673
  54.0296993  73.6965993   6.2811673  54.5566993  74.1925993   5.9801673
  60.7356993  73.8715993  16.0451673  59.8876993  73.7725993  15.8671673
  60.7646993  74.6165993  16.4991673  60.6146993  73.9675993  16.0861673
  55.1036993  69.4045993   5.1511673  54.8076993  69.9055993   4.5011673
  55.9706993  69.4825993   5.0941673  55.1876993  69.4905993   5.0471673
  58.0826993  68.5465993   7.3741673  58.1556993  69.4065993   7.5031673
  58.0446993  68.4715993   6.5061673  58.0876993  68.6625993   7.2651673
  50.9616993  73.9715993   8.8751673  50.7056993  74.8025993   8.8001673
  50.2976993  73.5885993   9.2921673  50.8256993  74.0375993   8.9261673
  53.9906993  68.7885993   9.3661673  53.4696993  68.1605993   9.0581673
  54.5816993  68.3515993   9.8371673  54.0016993  68.6305993   9.3901673
  57.2966993  70.9215993  18.6641673  57.4136993  70.4675993  17.9281673
  57.5846993  71.7195993  18.4611673  57.3566993  70.9725993  18.5251673
  53.0296993  70.5185993  17.6481673  52.2516993  70.1285993  17.5761673
  53.5206993  70.1065993  17.0571673  52.9866993  70.3995993  17.5501673
  59.6786993  68.1615993  16.8161673  59.8566993  67.3525993  16.5411673
  59.5356993  68.6025993  16.0771673  59.6836993  68.1075993  16.6661673
  50.3776993  71.0665993  15.2341673  50.3736993  71.6535993  15.8801673
  50.9716993  71.3785993  14.6771673  50.4646993  71.1995993  15.2471673
  51.3146993  70.6615993   4.1491673  51.2006993  69.7975993   4.1801673
  50.8396993  70.9555993   4.8191673  51.2276993  70.5775993   4.2521673
  60.6186993  71.8695993   2.8941673  60.1106993  71.2075993   2.6401673
  60.6706993  72.3735993   2.1841673  60.5516993  71.8465993   2.7521673
  59.2166993  71.1775993   7.3071673  59.2906993  71.7455993   6.6491673
  59.3376993  71.6695993   8.0171673  59.2446993  71.3345993   7.3151673
  53.8246993  67.0005993   5.6551673  54.3606993  67.6885993   5.6451673
  53.8276993  66.7265993   4.8271673  53.9036993  67.0615993   5.5311673
  54.2726993  70.8105993   7.3091673  54.5446993  70.3805993   6.6011673
  54.0966993  70.1745993   7.8801673  54.2866993  70.6535993   7.2891673
  52.4136993  71.9125993  10.3911673  53.2566993  72.1325993  10.3481673
  52.0246993  72.4855993   9.8601673  52.4806993  72.0295993  10.3061673
  58.2676993  73.5975993  18.5091673  57.7836993  74.1745993  18.9511673
  58.2396993  73.8925993  17.6881673  58.1916993  73.7265993  18.4531673
  50.6866993  76.5715993   3.5161673  50.5016993  75.7325993   3.6681673
  51.3456993  76.5355993   2.9461673  50.7566993  76.4425993   3.4541673
  53.8426993  74.4045993  16.8681673  53.3066993  73.8985993  17.3361673
  53.8626993  74.0145993  16.0881673  53.7656993  74.2715993  16.8221673
  54.4946993  75.6315993   8.6071673  53.7136993  75.5725993   8.2241673
  54.5666993  74.8795993   9.0441673  54.3896993  75.5125993   8.6151673
  54.9246993  75.3685993  12.0751673  54.9496993  74.6935993  11.5241673
  54.2786993  75.8645993  11.7631673  54.8336993  75.3415993  11.9481673
  52.7236993  76.7235993  17.6341673  52.6866993  77.2245993  16.9201673
  53.0546993  75.9715993  17.3391673  52.7666993  76.6855993  17.4851673
  59.5946993  72.5205993   9.7071673  60.0746993  73.2195993   9.9151673
  59.9676993  71.8735993  10.1581673  59.7206993  72.5285993   9.8041673
  53.4986993  76.3385993   2.8851673  53.8226993  75.5595993   2.6631673
  54.1446993  76.7065993   3.3401673  53.6416993  76.2775993   2.9191673
  50.4956993  67.9995993   3.8531673  50.6246993  67.2915993   3.3611673
  50.1286993  67.6815993   4.5781673  50.4606993  67.8475993   3.8881673
  60.1886993  75.6805993   4.3101673  60.2476993  76.3305993   4.8891673
  59.9996993  74.9845993   4.8011673  60.1696993  75.6735993   4.4681673
  56.4896993  72.5915993   7.7921673  57.3356993  72.4015993   7.8901673
  56.1196993  71.8145993   7.6541673  56.5596993  72.4485993   7.7861673
  51.3106993  73.9295993   4.4471673  51.7996993  73.6375993   5.1081673
  51.4396993  73.3365993   3.8201673  51.4016993  73.7985993   4.4521673
  57.2906993  73.8245993   2.6431673  57.5626993  74.6505993   2.7101673
  56.4276993  73.8995993   2.5471673  57.2036993  73.9575993   2.6381673
  50.7706993  69.7945993   9.1791673  50.8146993  70.1385993   8.3781673
  51.5256993  70.0315993   9.5461673  50.8886993  69.8805993   9.1151673
  59.9096993  76.7065993  11.4441673  60.3856993  77.0805993  12.0721673
  59.0866993  76.8405993  11.7031673  59.8586993  76.7815993  11.5751673
  56.6196993  72.3095993  14.1851673  56.7806993  71.5655993  14.6121673
  56.5746993  72.0605993  13.3501673  56.6366993  72.1625993  14.1251673
  58.3716993  68.1175993  14.0651673  59.0766993  68.4375993  13.6631673
  58.6126993  67.3105993  14.2921673  58.5106993  68.0455993  14.0391673
  54.8806993  73.1705993  10.1261673  55.3206993  73.0675993   9.3801673
  55.4256993  72.8575993  10.7311673  55.0256993  73.1095993  10.1051673
  58.4276993  68.1555993  10.1731673  57.6016993  68.0065993  10.4101673
  58.3876993  68.1905993   9.3021673  58.2996993  68.1385993  10.0791673
  50.9926993  68.5535993  16.2081673  50.8526993  69.3485993  15.8771673
  50.2066993  68.3105993  16.4971673  50.8556993  68.6355993  16.2021673
  54.0566993  71.2975993   3.4331673  54.1826993  70.9685993   2.6351673
  53.2446993  71.0485993   3.6321673  53.9556993  71.2125993   3.3451673
  54.0336993  73.3085993  13.8491673  54.4086993  73.9275993  13.3621673
  54.7076993  72.8345993  14.1341673  54.1886993  73.3305993  13.8191673
  51.8086993  71.7565993  13.1241673  51.8856993  71.5875993  12.2711673
  52.5546993  72.1625993  13.3211673  51.9296993  71.7915993  13.0271673
  54.3626993  69.1665993  15.5351673  54.2816993  68.3225993  15.7411673
  54.0486993  69.2105993  14.7221673  54.3046993  69.0485993  15.4451673
  51.2056993  76.9825993  13.3481673  51.5256993  77.2015993  12.5671673
  51.1056993  76.1175993  13.2931673  51.2376993  76.8875993  13.2251673
  55.9686993  76.2745993  14.7331673  55.5726993  77.0485993  14.8081673
  55.5626993  75.9015993  14.0571673  55.8506993  76.3335993  14.6441673
  56.3976993  69.2515993  12.1831673  55.5336993  69.3355993  12.2631673
  56.6176993  68.7375993  12.8521673  56.3026993  69.1885993  12.2941673
  58.0036993  74.3285993  15.7611673  57.6816993  73.7525993  15.1911673
  57.6446993  75.0835993  15.5151673  57.9036993  74.3545993  15.6411673
  53.6176993  69.3345993  12.8311673  53.2746993  68.5675993  12.5971673
  52.9226993  69.8585993  12.8951673  53.4646993  69.2985993  12.8061673
  52.2706993  72.6485993   6.7871673  51.9026993  72.9505993   7.5181673
  52.8046993  72.0195993   7.0711673  52.2946993  72.6005993   6.9371673
  57.9116993  76.7205993   2.8011673  58.0116993  76.8595993   1.9461673
  58.7296993  76.6605993   3.0971673  58.0466993  76.7315993   2.7181673
  57.0506993  69.6955993  15.9171673  57.2846993  69.1195993  15.3041673
  56.2086993  69.5145993  16.0581673  56.9606993  69.5835993  15.8471673
  51.1196993  60.4764913  81.4301313  50.6786993  60.5944913  82.1731313
  50.8366993  59.7014913  81.1451313  51.0126993  60.3794913  81.4981313
  50.8626993  54.2684913  77.9371313  50.0846993  54.4304913  77.5771313
  50.9016993  53.3974913  77.9591313  50.7536993  54.1634913  77.8871313
  54.0016993  59.5314913  76.6091313  53.6096993  59.1604913  75.9231313
  53.9216993  58.9334913  77.2381313  53.9316993  59.3884913  76.6001313
  53.6286993  61.1724913  80.5091313  54.2366993  61.0024913  81.1121313
  52.8776993  61.0324913  80.9301313  53.6076993  61.1264913  80.6601313
  57.9106993  50.5074913  80.4581313  57.8406993  51.1844913  79.9121313
  58.6516993  50.1194913  80.2091313  58.0096993  50.5504913  80.3401313
  52.5196993  64.2634913  76.5861313  52.9866993  64.3474913  75.8541313
  52.9746993  63.6854913  77.0551313  52.6556993  64.1904913  76.5471313
  51.0596993  63.2114913  87.6851313  51.1886993  62.9314913  88.5011313
  50.4496993  62.6704913  87.3761313  50.9886993  63.0904913  87.7601313
  52.5056993  57.7324913  81.8871313  52.0436993  57.3404913  81.2601313
  53.2056993  57.2194913  81.9791313  52.5406993  57.5994913  81.8081313
  57.0136993  53.3424913  87.2341313  57.6916993  53.3604913  86.6851313
  56.9686993  52.5064913  87.4791313  57.1066993  53.2214913  87.1891313
  57.6156993  63.9284913  90.0151313  57.7536993  64.6884913  89.6081313
  58.4066993  63.5634913  90.0421313  57.7526993  63.9874913  89.9591313
  54.5066993  55.8324913  81.9101313  55.3236993  55.6454913  82.1531313
  54.0296993  55.2184913  82.3061313  54.5566993  55.7144913  82.0051313
  58.7106993  61.8134913  84.5201313  59.0586993  61.0144913  84.5501313
  59.3756993  62.3174913  84.2651313  58.8606993  61.7694913  84.4871313
  58.7676993  61.2624913  80.7311313  59.0986993  60.6184913  81.2171313
  59.0076993  61.0514913  79.9201313  58.8516993  61.1364913  80.6831313
  60.7356993  55.3934913  92.0701313  59.8876993  55.2944913  91.8921313
  60.7646993  56.1384913  92.5241313  60.6146993  55.4894913  92.1111313
  55.1036993  50.9264913  81.1761313  54.8076993  51.4274913  80.5261313
  55.9706993  51.0044913  81.1191313  55.1876993  51.0124913  81.0721313
  58.0826993  50.0684913  83.3991313  58.1556993  50.9284913  83.5281313
  58.0446993  49.9934913  82.5311313  58.0876993  50.1844913  83.2901313
  50.9616993  55.4934913  84.9001313  50.7056993  56.3244913  84.8251313
  50.2976993  55.1104913  85.3171313  50.8256993  55.5594913  84.9511313
  50.8716993  65.2034913  82.8001313  50.2796993  65.7614913  82.4871313
  51.2976993  64.9344913  82.0881313  50.8476993  65.2454913  82.6491313
  56.7116993  63.0474913  80.2801313  56.1326993  62.7724913  80.8721313
  57.3356993  62.4384913  80.3051313  56.7186993  62.9174913  80.3711313
  53.9906993  50.3104913  85.3911313  53.4696993  49.6824913  85.0831313
  54.5816993  49.8734913  85.8621313  54.0016993  50.1524913  85.4151313
  52.4166993  63.8734913  80.7311313  53.0726993  63.2984913  80.7461313
  52.8056993  64.6224913  80.5101313  52.5716993  63.8984913  80.7011313
  53.2346993  62.3604913  84.2311313  53.6576993  62.0044913  83.5571313
  53.5586993  61.9384913  84.9231313  53.3446993  62.2454913  84.2341313
  56.4656993  65.2124913  83.5271313  57.3096993  65.3164913  83.3321313
  56.1686993  66.0304913  83.5951313  56.5466993  65.3484913  83.5081313
  55.4636993  66.4314913  89.2671313  55.7556993  66.3644913  90.0871313
  54.8376993  65.8264913  89.2221313  55.4146993  66.3324913  89.3821313
  50.3776993  52.5884913  91.2591313  50.3736993  53.1754913  91.9051313
  50.9716993  52.9004913  90.7021313  50.4646993  52.7214913  91.2721313
  59.8536993  63.1194913  76.5511313  59.6726993  63.6644913  77.2081313
  60.6196993  63.4094913  76.2501313  59.9396993  63.2434913  76.6041313
  51.3146993  52.1834913  80.1741313  51.2006993  51.3194913  80.2051313
  50.8396993  52.4774913  80.8441313  51.2276993  52.0994913  80.2771313
  53.4566993  64.5934913  88.3891313  52.7586993  64.0854913  88.5151313
  53.7166993  64.3884913  87.5811313  53.3916993  64.4884913  88.2881313
  60.6186993  53.3914913  78.9191313  60.1106993  52.7294913  78.6651313
  60.6706993  53.8954913  78.2091313  60.5516993  53.3684913  78.7771313
  59.2166993  52.6994913  83.3321313  59.2906993  53.2674913  82.6741313
  59.3376993  53.1914913  84.0421313  59.2446993  52.8564913  83.3401313
  54.8176993  63.4444913  90.9561313  55.6586993  63.5074913  90.7341313
  54.7806993  63.8414913  91.7321313  54.9366993  63.5124913  91.0381313
  53.8246993  48.5224913  81.6801313  54.3606993  49.2104913  81.6701313
  53.8276993  48.2484913  80.8521313  53.9036993  48.5834913  81.5561313
  56.7806993  58.9554913  85.7051313  56.9526993  58.7454913  86.5341313
  56.1256993  58.4214913  85.4891313  56.7096993  58.8454913  85.7961313
  57.5306993  58.8934913  88.2951313  57.5836993  59.7404913  88.4971313
  57.2456993  58.5234913  89.0321313  57.4966993  58.9634913  88.4331313
  54.2726993  52.3324913  83.3341313  54.5446993  51.9024913  82.6261313
  54.0966993  51.6964913  83.9051313  54.2866993  52.1754913  83.3141313
  54.0966993  59.7594913  82.8831313  54.9476993  59.6794913  82.7101313
  53.7396993  59.0774913  82.4711313  54.1696993  59.6464913  82.7961313
  52.8636993  66.4844913  84.1201313  52.1906993  65.9864913  83.8751313
  53.2666993  66.6694913  83.3691313  52.8236993  66.4384913  83.9731313
  52.4136993  53.4344913  86.4161313  53.2566993  53.6544913  86.3731313
  52.0246993  54.0074913  85.8851313  52.4806993  53.5514913  86.3311313
  56.4646993  59.7664913  81.1181313  57.1776993  60.2614913  81.2081313
  56.6866993  59.1994913  80.4921313  56.6026993  59.7554913  81.0391313
  50.6206993  61.4094913  84.4381313  49.9536993  61.8974913  84.7141313
  51.3006993  61.9544913  84.4671313  50.6226993  61.5614913  84.4831313
  50.6866993  58.0934913  79.5411313  50.5016993  57.2544913  79.6931313
  51.3456993  58.0574913  78.9711313  50.7566993  57.9644913  79.4791313
  50.8586993  62.2574913  79.1161313  51.4106993  62.8264913  79.4801313
  50.6266993  61.7424913  79.7811313  50.9056993  62.2654913  79.2681313
  55.0626993  61.2574913  86.2051313  55.5296993  61.5464913  86.8831313
  55.6346993  60.7794913  85.7511313  55.2166993  61.2294913  86.2381313
  50.6886993  60.7064913  76.7441313  51.4446993  60.2744913  76.8021313
  50.7036993  61.2384913  77.4351313  50.8026993  60.7214913  76.8551313
  51.6286993  58.9274913  84.7491313  52.0596993  58.7984913  84.0021313
  51.4236993  59.7754913  84.7231313  51.6616993  59.0334913  84.6351313
  57.9746993  52.4914913  78.3991313  57.9726993  52.3744913  77.5341313
  57.7936993  53.3394913  78.4911313  57.9476993  52.5994913  78.2851313
  55.7126993  62.4434913  83.0311313  55.8386993  63.2864913  83.2181313
  56.3806993  62.0444913  83.4271313  55.8306993  62.5094913  83.1171313
  54.3276993  55.3234913  78.0331313  54.1996993  54.8754913  78.7711313
  53.7456993  54.9814913  77.4811313  54.2226993  55.2064913  78.0611313
  54.4946993  57.1534913  84.6321313  53.7136993  57.0944913  84.2491313
  54.5666993  56.4014913  85.0691313  54.3896993  57.0344913  84.6401313
  54.9246993  56.8904913  88.1001313  54.9496993  56.2154913  87.5491313
  54.2786993  57.3864913  87.7881313  54.8336993  56.8634913  87.9731313
  59.0246993  65.6674913  87.4921313  58.7476993  65.0264913  86.9691313
  58.8166993  66.3934913  87.0541313  58.9536993  65.6804913  87.3501313
  59.5946993  54.0424913  85.7321313  60.0746993  54.7414913  85.9401313
  59.9676993  53.3954913  86.1831313  59.7206993  54.0504913  85.8291313
  56.7056993  65.8104913  79.6791313  56.5586993  65.0344913  80.0501313
  57.3946993  65.6634913  79.1641313  56.7856993  65.6734913  79.6581313
  56.3766993  49.5534913  77.6671313  56.4736993  49.4464913  78.5281313
  55.6686993  50.0594913  77.6021313  56.2866993  49.6124913  77.7851313
  58.9976993  65.3264913  78.0811313  59.6196993  65.4894913  78.6711313
  59.0336993  66.0174913  77.5491313  59.0946993  65.4524913  78.0901313
  53.4986993  57.8604913  78.9101313  53.8226993  57.0814913  78.6881313
  54.1446993  58.2284913  79.3651313  53.6416993  57.7994913  78.9441313
  50.4956993  49.5214913  79.8781313  50.6246993  48.8134913  79.3861313
  50.1286993  49.2034913  80.6031313  50.4606993  49.3694913  79.9131313
  60.1886993  57.2024913  80.3351313  60.2476993  57.8524913  80.9141313
  59.9996993  56.5064913  80.8261313  60.1696993  57.1954913  80.4931313
  54.6846993  51.7194913  76.8471313  54.1736993  51.7724913  76.1411313
  55.4686993  51.9594913  76.5511313  54.7246993  51.7624913  76.6991313
  59.4116993  59.2494913  84.7661313  58.5646993  59.0554913  84.8471313
  59.7356993  59.0844913  85.5591313  59.3336993  59.1964913  84.8951313
  56.1636993  65.9794913  75.6521313  56.6026993  65.2824913  75.9401313
  56.3706993  66.6034913  76.2251313  56.2596993  65.9684913  75.7791313
  53.2596993  58.9424913  87.0821313  53.9816993  59.4304913  87.0451313
  52.9896993  58.9124913  86.2531313  53.3266993  59.0104913  86.9541313
  56.4896993  54.1134913  83.8171313  57.3356993  53.9234913  83.9151313
  56.1196993  53.3364913  83.6791313  56.5596993  53.9704913  83.8111313
  51.3106993  55.4514913  80.4721313  51.7996993  55.1594913  81.1331313
  51.4396993  54.8584913  79.8451313  51.4016993  55.3204913  80.4771313
  55.8356993  56.8854913  75.9581313  55.2256993  56.4804913  76.4321313
  55.4496993  57.0034913  75.1851313  55.6886993  56.8424913  75.9141313
  52.6546993  59.9944913  91.3601313  52.2336993  59.4764913  90.7991313
  52.3026993  60.7804913  91.2171313  52.5406993  60.0344913  91.2561313
  57.2906993  55.3464913  78.6681313  57.5626993  56.1724913  78.7351313
  56.4276993  55.4214913  78.5721313  57.2036993  55.4794913  78.6631313
  50.7706993  51.3164913  85.2041313  50.8146993  51.6604913  84.4031313
  51.5256993  51.5534913  85.5711313  50.8886993  51.4024913  85.1401313
  57.3936993  61.8054913  87.9781313  57.0956993  62.3974913  88.5451313
  57.4486993  62.2474913  87.2291313  57.3576993  61.9584913  87.9511313
  55.3726993  60.7554913  91.3761313  54.5666993  60.4654913  91.5431313
  55.2836993  61.6234913  91.3821313  55.2406993  60.8404913  91.4011313
  59.9096993  58.2284913  87.4691313  60.3856993  58.6024913  88.0971313
  59.0866993  58.3624913  87.7281313  59.8586993  58.3034913  87.6001313
  56.6196993  53.8314913  90.2101313  56.7806993  53.0874913  90.6371313
  56.5746993  53.5824913  89.3751313  56.6366993  53.6844913  90.1501313
  59.1736993  65.6214913  82.6971313  59.7196993  66.3004913  82.7511313
  58.8236993  65.7034913  81.9021313  59.2026993  65.7344913  82.5871313
  58.3716993  49.6394913  90.0901313  59.0766993  49.9594913  89.6881313
  58.6126993  48.8324913  90.3171313  58.5106993  49.5674913  90.0641313
  57.3566993  63.8494913  86.0861313  56.7326993  64.4314913  85.9041313
  57.6046993  63.5634913  85.3001313  57.3006993  63.8934913  85.9431313
  58.9506993  58.6254913  76.0011313  58.1456993  58.4484913  75.7161313
  58.9176993  59.4764913  76.1931313  58.8266993  58.7244913  75.9881313
  54.8806993  54.6924913  86.1511313  55.3206993  54.5894913  85.4051313
  55.4256993  54.3794913  86.7561313  55.0256993  54.6314913  86.1301313
  60.0096993  65.4984913  91.9661313  60.4876993  64.8984913  91.5501313
  59.6586993  65.0554913  92.6311313  60.0286993  65.3444913  92.0031313
  58.4276993  49.6774913  86.1981313  57.6016993  49.5284913  86.4351313
  58.3876993  49.7124913  85.3271313  58.2996993  49.6604913  86.1041313
  60.0686993  60.7174913  90.9861313  59.2736993  60.6534913  91.3371313
  60.1396993  61.5644913  90.7911313  59.9616993  60.8324913  91.0091313
  50.9926993  50.0754913  92.2331313  50.8526993  50.8704913  91.9021313
  50.2066993  49.8324913  92.5221313  50.8556993  50.1574913  92.2271313
  55.8986993  66.9244913  86.3031313  55.9096993  66.9834913  87.1731313
  55.4736993  66.1774913  86.1531313  55.8376993  66.8224913  86.4091313
  54.0566993  52.8194913  79.4581313  54.1826993  52.4904913  78.6601313
  53.2446993  52.5704913  79.6571313  53.9556993  52.7344913  79.3701313
  52.6626993  66.4224913  91.7451313  52.0086993  65.8534913  91.8431313
  52.2876993  67.1954913  91.8961313  52.5106993  66.4524913  91.7821313
  54.0336993  54.8304913  89.8741313  54.4086993  55.4494913  89.3871313
  54.7076993  54.3564913  90.1591313  54.1886993  54.8524913  89.8441313
  51.8086993  53.2784913  89.1491313  51.8856993  53.1094913  88.2961313
  52.5546993  53.6844913  89.3461313  51.9296993  53.3134913  89.0521313
  54.3626993  50.6884913  91.5601313  54.2816993  49.8444913  91.7661313
  54.0486993  50.7324913  90.7471313  54.3046993  50.5704913  91.4701313
  51.2056993  58.5044913  89.3731313  51.5256993  58.7234913  88.5921313
  51.1056993  57.6394913  89.3181313  51.2376993  58.4094913  89.2501313
  52.6616993  54.4404913  75.9911313  51.9896993  54.4544913  76.5471313
  52.7566993  53.5924913  75.8071313  52.5766993  54.3174913  76.0461313
  56.6496993  63.1454913  77.1051313  57.0906993  63.2254913  77.8531313
  55.8446993  62.9294913  77.3631313  56.5956993  63.1254913  77.2541313
  55.9686993  57.7964913  90.7581313  55.5726993  58.5704913  90.8331313
  55.5626993  57.4234913  90.0821313  55.8506993  57.8554913  90.6691313
  53.9786993  62.2154913  77.7061313  53.7346993  61.9084913  78.4861313
  53.9456993  61.5124913  77.1901313  53.9376993  62.0664913  77.7451313
  56.7976993  60.4604913  76.4491313  55.9796993  60.1924913  76.5891313
  56.7696993  61.3124913  76.6341313  56.6726993  60.5474913  76.4971313
  56.3976993  50.7734913  88.2081313  55.5336993  50.8574913  88.2881313
  56.6176993  50.2594913  88.8771313  56.3026993  50.7104913  88.3191313
  58.0036993  55.8504913  91.7861313  57.6816993  55.2744913  91.2161313
  57.6446993  56.6054913  91.5401313  57.9036993  55.8764913  91.6661313
  58.7996993  49.1024913  76.4131313  58.8776993  49.3494913  75.5801313
  58.0566993  49.4794913  76.6711313  58.7016993  49.1944913  76.3281313
  53.6176993  50.8564913  88.8561313  53.2746993  50.0894913  88.6221313
  52.9226993  51.3804913  88.9201313  53.4646993  50.8204913  88.8311313
  52.2706993  54.1704913  82.8121313  51.9026993  54.4724913  83.5431313
  52.8046993  53.5414913  83.0961313  52.2946993  54.1224913  82.9621313
  51.9586993  62.5784913  90.3231313  51.3846993  62.9944913  90.8321313
  52.6916993  63.0434913  90.4181313  51.9826993  62.7084913  90.4121313
  53.7446993  65.8454913  79.0981313  53.5996993  66.0014913  78.2521313
  54.6106993  65.9244913  79.1761313  53.8516993  65.8804913  78.9851313
  57.9116993  58.2424913  78.8261313  58.0116993  58.3814913  77.9711313
  58.7296993  58.1824913  79.1221313  58.0466993  58.2534913  78.7431313
  57.0506993  51.2174913  91.9421313  57.2846993  50.6414913  91.3291313
  56.2086993  51.0364913  92.0831313  56.9606993  51.1054913  91.8721313
  54.4316993  64.6604913  85.5751313  54.3526993  63.8504913  85.2591313
  53.9876993  65.1474913  85.0031313  54.3546993  64.6124913  85.4441313
  60.0326993  60.7794913  78.0581313  60.7496993  60.4324913  77.7021313
  59.9986993  61.5794913  77.7101313  60.1336993  60.8464913  77.9541313
  52.0036993  66.9044913  89.1561313  52.4966993  66.8484913  89.8741313
  52.1916993  66.1714913  88.7211313  52.1046993  66.7874913  89.1981313
  51.1196993  60.4764913  62.4238903  50.6786993  60.5944913  63.1668903
  50.8366993  59.7014913  62.1388903  51.0126993  60.3794913  62.4918903
  50.8626993  54.2684913  58.9308903  50.0846993  54.4304913  58.5708903
  50.9016993  53.3974913  58.9528903  50.7536993  54.1634913  58.8808903
  54.0016993  59.5314913  57.6028903  53.6096993  59.1604913  56.9168903
  53.9216993  58.9334913  58.2318903  53.9316993  59.3884913  57.5938903
  53.6286993  61.1724913  61.5028903  54.2366993  61.0024913  62.1058903
  52.8776993  61.0324913  61.9238903  53.6076993  61.1264913  61.6538903
  57.9106993  50.5074913  61.4518903  57.8406993  51.1844913  60.9058903
  58.6516993  50.1194913  61.2028903  58.0096993  50.5504913  61.3338903
  52.5196993  64.2634913  57.5798903  52.9866993  64.3474913  56.8478903
  52.9746993  63.6854913  58.0488903  52.6556993  64.1904913  57.5408903
  51.0596993  63.2114913  68.6788903  51.1886993  62.9314913  69.4948903
  50.4496993  62.6704913  68.3698903  50.9886993  63.0904913  68.7538903
  57.6336993  60.7364913  73.7458903  57.3976993  60.7334913  74.5858903
  56.8856993  60.5884913  73.3218903  57.4876993  60.7134913  73.8068903
  52.5056993  57.7324913  62.8808903  52.0436993  57.3404913  62.2538903
  53.2056993  57.2194913  62.9728903  52.5406993  57.5994913  62.8018903
  57.0136993  53.3424913  68.2278903  57.6916993  53.3604913  67.6788903
  56.9686993  52.5064913  68.4728903  57.1066993  53.2214913  68.1828903
  57.6156993  63.9284913  71.0088903  57.7536993  64.6884913  70.6018903
  58.4066993  63.5634913  71.0358903  57.7526993  63.9874913  70.9528903
  54.5066993  55.8324913  62.9038903  55.3236993  55.6454913  63.1468903
  54.0296993  55.2184913  63.2998903  54.5566993  55.7144913  62.9988903
  58.7106993  61.8134913  65.5138903  59.0586993  61.0144913  65.5438903
  59.3756993  62.3174913  65.2588903  58.8606993  61.7694913  65.4808903
  58.7676993  61.2624913  61.7248903  59.0986993  60.6184913  62.2108903
  59.0076993  61.0514913  60.9138903  58.8516993  61.1364913  61.6768903
  60.7356993  55.3934913  73.0638903  59.8876993  55.2944913  72.8858903
  60.7646993  56.1384913  73.5178903  60.6146993  55.4894913  73.1048903
  55.1036993  50.9264913  62.1698903  54.8076993  51.4274913  61.5198903
  55.9706993  51.0044913  62.1128903  55.1876993  51.0124913  62.0658903
  58.0826993  50.0684913  64.3928903  58.1556993  50.9284913  64.5218903
  58.0446993  49.9934913  63.5248903  58.0876993  50.1844913  64.2838903
  50.9616993  55.4934913  65.8938903  50.7056993  56.3244913  65.8188903
  50.2976993  55.1104913  66.3108903  50.8256993  55.5594913  65.9448903
  50.8716993  65.2034913  63.7938903  50.2796993  65.7614913  63.4808903
  51.2976993  64.9344913  63.0818903  50.8476993  65.2454913  63.6428903
  56.7116993  63.0474913  61.2738903  56.1326993  62.7724913  61.8658903
  57.3356993  62.4384913  61.2988903  56.7186993  62.9174913  61.3648903
  53.9906993  50.3104913  66.3848903  53.4696993  49.6824913  66.0768903
  54.5816993  49.8734913  66.8558903  54.0016993  50.1524913  66.4088903
  57.2966993  52.4434913  75.6828903  57.4136993  51.9894913  74.9468903
  57.5846993  53.2414913  75.4798903  57.3566993  52.4944913  75.5438903
  52.4166993  63.8734913  61.7248903  53.0726993  63.2984913  61.7398903
  52.8056993  64.6224913  61.5038903  52.5716993  63.8984913  61.6948903
  53.0296993  52.0404913  74.6668903  52.2516993  51.6504913  74.5948903
  53.5206993  51.6284913  74.0758903  52.9866993  51.9214913  74.5688903
  53.2346993  62.3604913  65.2248903  53.6576993  62.0044913  64.5508903
  53.5586993  61.9384913  65.9168903  53.3446993  62.2454913  65.2278903
  56.4656993  65.2124913  64.5208903  57.3096993  65.3164913  64.3258903
  56.1686993  66.0304913  64.5888903  56.5466993  65.3484913  64.5018903
  59.6786993  49.6834913  73.8348903  59.8566993  48.8744913  73.5598903
  59.5356993  50.1244913  73.0958903  59.6836993  49.6294913  73.6848903
  55.4636993  66.4314913  70.2608903  55.7556993  66.3644913  71.0808903
  54.8376993  65.8264913  70.2158903  55.4146993  66.3324913  70.3758903
  50.3776993  52.5884913  72.2528903  50.3736993  53.1754913  72.8988903
  50.9716993  52.9004913  71.6958903  50.4646993  52.7214913  72.2658903
  59.8536993  63.1194913  57.5448903  59.6726993  63.6644913  58.2018903
  60.6196993  63.4094913  57.2438903  59.9396993  63.2434913  57.5978903
  51.3146993  52.1834913  61.1678903  51.2006993  51.3194913  61.1988903
  50.8396993  52.4774913  61.8378903  51.2276993  52.0994913  61.2708903
  53.4566993  64.5934913  69.3828903  52.7586993  64.0854913  69.5088903
  53.7166993  64.3884913  68.5748903  53.3916993  64.4884913  69.2818903
  60.6186993  53.3914913  59.9128903  60.1106993  52.7294913  59.6588903
  60.6706993  53.8954913  59.2028903  60.5516993  53.3684913  59.7708903
  59.2166993  52.6994913  64.3258903  59.2906993  53.2674913  63.6678903
  59.3376993  53.1914913  65.0358903  59.2446993  52.8564913  64.3338903
  54.8176993  63.4444913  71.9498903  55.6586993  63.5074913  71.7278903
  54.7806993  63.8414913  72.7258903  54.9366993  63.5124913  72.0318903
  53.8246993  48.5224913  62.6738903  54.3606993  49.2104913  62.6638903
  53.8276993  48.2484913  61.8458903  53.9036993  48.5834913  62.5498903
  56.7806993  58.9554913  66.6988903  56.9526993  58.7454913  67.5278903
  56.1256993  58.4214913  66.4828903  56.7096993  58.8454913  66.7898903
  57.5306993  58.8934913  69.2888903  57.5836993  59.7404913  69.4908903
  57.2456993  58.5234913  70.0258903  57.4966993  58.9634913  69.4268903
  50.3516993  63.2644913  75.4998903  51.1076993  63.6134913  75.7578903
  50.5286993  62.4114913  75.4428903  50.4896993  63.1894913  75.5298903
  54.2726993  52.3324913  64.3278903  54.5446993  51.9024913  63.6198903
  54.0966993  51.6964913  64.8988903  54.2866993  52.1754913  64.3078903
  54.0966993  59.7594913  63.8768903  54.9476993  59.6794913  63.7038903
  53.7396993  59.0774913  63.4648903  54.1696993  59.6464913  63.7898903
  52.8636993  66.4844913  65.1138903  52.1906993  65.9864913  64.8688903
  53.2666993  66.6694913  64.3628903  52.8236993  66.4384913  64.9668903
  52.4136993  53.4344913  67.4098903  53.2566993  53.6544913  67.3668903
  52.0246993  54.0074913  66.8788903  52.4806993  53.5514913  67.3248903
  56.4646993  59.7664913  62.1118903  57.1776993  60.2614913  62.2018903
  56.6866993  59.1994913  61.4858903  56.6026993  59.7554913  62.0328903
  50.6206993  61.4094913  65.4318903  49.9536993  61.8974913  65.7078903
  51.3006993  61.9544913  65.4608903  50.6226993  61.5614913  65.4768903
  58.2676993  55.1194913  75.5278903  57.7836993  55.6964913  75.9698903
  58.2396993  55.4144913  74.7068903  58.1916993  55.2484913  75.4718903
  50.6866993  58.0934913  60.5348903  50.5016993  57.2544913  60.6868903
  51.3456993  58.0574913  59.9648903  50.7566993  57.9644913  60.4728903
  50.8586993  62.2574913  60.1098903  51.4106993  62.8264913  60.4738903
  50.6266993  61.7424913  60.7748903  50.9056993  62.2654913  60.2618903
  55.0626993  61.2574913  67.1988903  55.5296993  61.5464913  67.8768903
  55.6346993  60.7794913  66.7448903  55.2166993  61.2294913  67.2318903
  50.6886993  60.7064913  57.7378903  51.4446993  60.2744913  57.7958903
  50.7036993  61.2384913  58.4288903  50.8026993  60.7214913  57.8488903
  51.6286993  58.9274913  65.7428903  52.0596993  58.7984913  64.9958903
  51.4236993  59.7754913  65.7168903  51.6616993  59.0334913  65.6288903
  57.9746993  52.4914913  59.3928903  57.9726993  52.3744913  58.5278903
  57.7936993  53.3394913  59.4848903  57.9476993  52.5994913  59.2788903
  55.7126993  62.4434913  64.0248903  55.8386993  63.2864913  64.2118903
  56.3806993  62.0444913  64.4208903  55.8306993  62.5094913  64.1108903
  53.8426993  55.9264913  73.8868903  53.3066993  55.4204913  74.3548903
  53.8626993  55.5364913  73.1068903  53.7656993  55.7934913  73.8408903
  54.3276993  55.3234913  59.0268903  54.1996993  54.8754913  59.7648903
  53.7456993  54.9814913  58.4748903  54.2226993  55.2064913  59.0548903
  54.4946993  57.1534913  65.6258903  53.7136993  57.0944913  65.2428903
  54.5666993  56.4014913  66.0628903  54.3896993  57.0344913  65.6338903
  54.9246993  56.8904913  69.0938903  54.9496993  56.2154913  68.5428903
  54.2786993  57.3864913  68.7818903  54.8336993  56.8634913  68.9668903
  59.0246993  65.6674913  68.4858903  58.7476993  65.0264913  67.9628903
  58.8166993  66.3934913  68.0478903  58.9536993  65.6804913  68.3438903
  52.7236993  58.2454913  74.6528903  52.6866993  58.7464913  73.9388903
  53.0546993  57.4934913  74.3578903  52.7666993  58.2074913  74.5038903
  58.6226993  63.2954913  74.0878903  58.9766993  63.1174913  74.8648903
  58.1866993  62.5664913  73.8888903  58.6106993  63.1614913  74.1738903
  59.5946993  54.0424913  66.7258903  60.0746993  54.7414913  66.9338903
  59.9676993  53.3954913  67.1768903  59.7206993  54.0504913  66.8228903
  56.7056993  65.8104913  60.6728903  56.5586993  65.0344913  61.0438903
  57.3946993  65.6634913  60.1578903  56.7856993  65.6734913  60.6518903
  56.3766993  49.5534913  58.6608903  56.4736993  49.4464913  59.5218903
  55.6686993  50.0594913  58.5958903  56.2866993  49.6124913  58.7788903
  58.9976993  65.3264913  59.0748903  59.6196993  65.4894913  59.6648903
  59.0336993  66.0174913  58.5428903  59.0946993  65.4524913  59.0838903
  53.4986993  57.8604913  59.9038903  53.8226993  57.0814913  59.6818903
  54.1446993  58.2284913  60.3588903  53.6416993  57.7994913  59.9378903
  50.4956993  49.5214913  60.8718903  50.6246993  48.8134913  60.3798903
  50.1286993  49.2034913  61.5968903  50.4606993  49.3694913  60.9068903
  60.1886993  57.2024913  61.3288903  60.2476993  57.8524913  61.9078903
  59.9996993  56.5064913  61.8198903  60.1696993  57.1954913  61.4868903
  54.6846993  51.7194913  57.8408903  54.1736993  51.7724913  57.1348903
  55.4686993  51.9594913  57.5448903  54.7246993  51.7624913  57.6928903
  59.4116993  59.2494913  65.7598903  58.5646993  59.0554913  65.8408903
  59.7356993  59.0844913  66.5528903  59.3336993  59.1964913  65.8888903
  56.1636993  65.9794913  56.6458903  56.6026993  65.2824913  56.9338903
  56.3706993  66.6034913  57.2188903  56.2596993  65.9684913  56.7728903
  53.2596993  58.9424913  68.0758903  53.9816993  59.4304913  68.0388903
  52.9896993  58.9124913  67.2468903  53.3266993  59.0104913  67.9478903
  56.4896993  54.1134913  64.8108903  57.3356993  53.9234913  64.9088903
  56.1196993  53.3364913  64.6728903  56.5596993  53.9704913  64.8048903
  51.3106993  55.4514913  61.4658903  51.7996993  55.1594913  62.1268903
  51.4396993  54.8584913  60.8388903  51.4016993  55.3204913  61.4708903
  55.8356993  56.8854913  56.9518903  55.2256993  56.4804913  57.4258903
  55.4496993  57.0034913  56.1788903  55.6886993  56.8424913  56.9078903
  52.6546993  59.9944913  72.3538903  52.2336993  59.4764913  71.7928903
  52.3026993  60.7804913  72.2108903  52.5406993  60.0344913  72.2498903
  57.2906993  55.3464913  59.6618903  57.5626993  56.1724913  59.7288903
  56.4276993  55.4214913  59.5658903  57.2036993  55.4794913  59.6568903
  50.7706993  51.3164913  66.1978903  50.8146993  51.6604913  65.3968903
  51.5256993  51.5534913  66.5648903  50.8886993  51.4024913  66.1338903
  57.3936993  61.8054913  68.9718903  57.0956993  62.3974913  69.5388903
  57.4486993  62.2474913  68.2228903  57.3576993  61.9584913  68.9448903
  55.3726993  60.7554913  72.3698903  54.5666993  60.4654913  72.5368903
  55.2836993  61.6234913  72.3758903  55.2406993  60.8404913  72.3948903
  59.9096993  58.2284913  68.4628903  60.3856993  58.6024913  69.0908903
  59.0866993  58.3624913  68.7218903  59.8586993  58.3034913  68.5938903
  56.6196993  53.8314913  71.2038903  56.7806993  53.0874913  71.6308903
  56.5746993  53.5824913  70.3688903  56.6366993  53.6844913  71.1438903
  59.1736993  65.6214913  63.6908903  59.7196993  66.3004913  63.7448903
  58.8236993  65.7034913  62.8958903  59.2026993  65.7344913  63.5808903
  58.3716993  49.6394913  71.0838903  59.0766993  49.9594913  70.6818903
  58.6126993  48.8324913  71.3108903  58.5106993  49.5674913  71.0578903
  57.3566993  63.8494913  67.0798903  56.7326993  64.4314913  66.8978903
  57.6046993  63.5634913  66.2938903  57.3006993  63.8934913  66.9368903
  58.9506993  58.6254913  56.9948903  58.1456993  58.4484913  56.7098903
  58.9176993  59.4764913  57.1868903  58.8266993  58.7244913  56.9818903
  54.8806993  54.6924913  67.1448903  55.3206993  54.5894913  66.3988903
  55.4256993  54.3794913  67.7498903  55.0256993  54.6314913  67.1238903
  60.0096993  65.4984913  72.9598903  60.4876993  64.8984913  72.5438903
  59.6586993  65.0554913  73.6248903  60.0286993  65.3444913  72.9968903
  58.4276993  49.6774913  67.1918903  57.6016993  49.5284913  67.4288903
  58.3876993  49.7124913  66.3208903  58.2996993  49.6604913  67.0978903
  60.0686993  60.7174913  71.9798903  59.2736993  60.6534913  72.3308903
  60.1396993  61.5644913  71.7848903  59.9616993  60.8324913  72.0028903
  50.9926993  50.0754913  73.2268903  50.8526993  50.8704913  72.8958903
  50.2066993  49.8324913  73.5158903  50.8556993  50.1574913  73.2208903
  55.8986993  66.9244913  67.2968903  55.9096993  66.9834913  68.1668903
  55.4736993  66.1774913  67.1468903  55.8376993  66.8224913  67.4028903
  54.0566993  52.8194913  60.4518903  54.1826993  52.4904913  59.6538903
  53.2446993  52.5704913  60.6508903  53.9556993  52.7344913  60.3638903
  52.6626993  66.4224913  72.7388903  52.0086993  65.8534913  72.8368903
  52.2876993  67.1954913  72.8898903  52.5106993  66.4524913  72.7758903
  54.0336993  54.8304913  70.8678903  54.4086993  55.4494913  70.3808903
  54.7076993  54.3564913  71.1528903  54.1886993  54.8524913  70.8378903
  51.8086993  53.2784913  70.1428903  51.8856993  53.1094913  69.2898903
  52.5546993  53.6844913  70.3398903  51.9296993  53.3134913  70.0458903
  54.3626993  50.6884913  72.5538903  54.2816993  49.8444913  72.7598903
  54.0486993  50.7324913  71.7408903  54.3046993  50.5704913  72.4638903
  51.2056993  58.5044913  70.3668903  51.5256993  58.7234913  69.5858903
  51.1056993  57.6394913  70.3118903  51.2376993  58.4094913  70.2438903
  52.6616993  54.4404913  56.9848903  51.9896993  54.4544913  57.5408903
  52.7566993  53.5924913  56.8008903  52.5766993  54.3174913  57.0398903
  56.6496993  63.1454913  58.0988903  57.0906993  63.2254913  58.8468903
  55.8446993  62.9294913  58.3568903  56.5956993  63.1254913  58.2478903
  55.9686993  57.7964913  71.7518903  55.5726993  58.5704913  71.8268903
  55.5626993  57.4234913  71.0758903  55.8506993  57.8554913  71.6628903
  53.9786993  62.2154913  58.6998903  53.7346993  61.9084913  59.4798903
  53.9456993  61.5124913  58.1838903  53.9376993  62.0664913  58.7388903
  56.7976993  60.4604913  57.4428903  55.9796993  60.1924913  57.5828903
  56.7696993  61.3124913  57.6278903  56.6726993  60.5474913  57.4908903
  56.3976993  50.7734913  69.2018903  55.5336993  50.8574913  69.2818903
  56.6176993  50.2594913  69.8708903  56.3026993  50.7104913  69.3128903
  58.0036993  55.8504913  72.7798903  57.6816993  55.2744913  72.2098903
  57.6446993  56.6054913  72.5338903  57.9036993  55.8764913  72.6598903
  58.7996993  49.1024913  57.4068903  58.8776993  49.3494913  56.5738903
  58.0566993  49.4794913  57.6648903  58.7016993  49.1944913  57.3218903
  56.4386993  66.2064913  73.0278903  56.4796993  66.3324913  73.8908903
  57.0896993  65.6464913  72.8718903  56.5406993  66.1424913  73.1328903
  53.6176993  50.8564913  69.8498903  53.2746993  50.0894913  69.6158903
  52.9226993  51.3804913  69.9138903  53.4646993  50.8204913  69.8248903
  54.0316993  64.5894913  74.3878903  54.6266993  65.0204913  74.8598903
  53.6676993  65.2134913  73.8988903  54.0656993  64.7454913  74.3848903
  52.2706993  54.1704913  63.8058903  51.9026993  54.4724913  64.5368903
  52.8046993  53.5414913  64.0898903  52.2946993  54.1224913  63.9558903
  51.9586993  62.5784913  71.3168903  51.3846993  62.9944913  71.8258903
  52.6916993  63.0434913  71.4118903  51.9826993  62.7084913  71.4058903
  53.7446993  65.8454913  60.0918903  53.5996993  66.0014913  59.2458903
  54.6106993  65.9244913  60.1698903  53.8516993  65.8804913  59.9788903
  57.9116993  58.2424913  59.8198903  58.0116993  58.3814913  58.9648903
  58.7296993  58.1824913  60.1158903  58.0466993  58.2534913  59.7368903
  57.0506993  51.2174913  72.9358903  57.2846993  50.6414913  72.3228903
  56.2086993  51.0364913  73.0768903  56.9606993  51.1054913  72.8658903
  54.4316993  64.6604913  66.5688903  54.3526993  63.8504913  66.2528903
  53.9876993  65.1474913  65.9968903  54.3546993  64.6124913  66.4378903
  60.0326993  60.7794913  59.0518903  60.7496993  60.4324913  58.6958903
  59.9986993  61.5794913  58.7038903  60.1336993  60.8464913  58.9478903
  52.0036993  66.9044913  70.1498903  52.4966993  66.8484913  70.8678903
  52.1916993  66.1714913  69.7148903  52.1046993  66.7874913  70.1918903
  51.1196993  60.4764913  43.4176493  50.6786993  60.5944913  44.1606493
  50.8366993  59.7014913  43.1326493  51.0126993  60.3794913  43.4856493
  50.8626993  54.2684913  39.9246493  50.0846993  54.4304913  39.5646493
  50.9016993  53.3974913  39.9466493  50.7536993  54.1634913  39.8746493
  54.0016993  59.5314913  38.5966493  53.6096993  59.1604913  37.9106493
  53.9216993  58.9334913  39.2256493  53.9316993  59.3884913  38.5876493
  53.6286993  61.1724913  42.4966493  54.2366993  61.0024913  43.0996493
  52.8776993  61.0324913  42.9176493  53.6076993  61.1264913  42.6476493
  57.9106993  50.5074913  42.4456493  57.8406993  51.1844913  41.8996493
  58.6516993  50.1194913  42.1966493  58.0096993  50.5504913  42.3276493
  52.5196993  64.2634913  38.5736493  52.9866993  64.3474913  37.8416493
  52.9746993  63.6854913  39.0426493  52.6556993  64.1904913  38.5346493
  51.0596993  63.2114913  49.6726493  51.1886993  62.9314913  50.4886493
  50.4496993  62.6704913  49.3636493  50.9886993  63.0904913  49.7476493
  57.6336993  60.7364913  54.7396493  57.3976993  60.7334913  55.5796493
  56.8856993  60.5884913  54.3156493  57.4876993  60.7134913  54.8006493
  52.5056993  57.7324913  43.8746493  52.0436993  57.3404913  43.2476493
  53.2056993  57.2194913  43.9666493  52.5406993  57.5994913  43.7956493
  57.0136993  53.3424913  49.2216493  57.6916993  53.3604913  48.6726493
  56.9686993  52.5064913  49.4666493  57.1066993  53.2214913  49.1766493
  57.6156993  63.9284913  52.0026493  57.7536993  64.6884913  51.5956493
  58.4066993  63.5634913  52.0296493  57.7526993  63.9874913  51.9466493
  54.5066993  55.8324913  43.8976493  55.3236993  55.6454913  44.1406493
  54.0296993  55.2184913  44.2936493  54.5566993  55.7144913  43.9926493
  58.7106993  61.8134913  46.5076493  59.0586993  61.0144913  46.5376493
  59.3756993  62.3174913  46.2526493  58.8606993  61.7694913  46.4746493
  58.7676993  61.2624913  42.7186493  59.0986993  60.6184913  43.2046493
  59.0076993  61.0514913  41.9076493  58.8516993  61.1364913  42.6706493
  60.7356993  55.3934913  54.0576493  59.8876993  55.2944913  53.8796493
  60.7646993  56.1384913  54.5116493  60.6146993  55.4894913  54.0986493
  55.1036993  50.9264913  43.1636493  54.8076993  51.4274913  42.5136493
  55.9706993  51.0044913  43.1066493  55.1876993  51.0124913  43.0596493
  58.0826993  50.0684913  45.3866493  58.1556993  50.9284913  45.5156493
  58.0446993  49.9934913  44.5186493  58.0876993  50.1844913  45.2776493
  50.9616993  55.4934913  46.8876493  50.7056993  56.3244913  46.8126493
  50.2976993  55.1104913  47.3046493  50.8256993  55.5594913  46.9386493
  50.8716993  65.2034913  44.7876493  50.2796993  65.7614913  44.4746493
  51.2976993  64.9344913  44.0756493  50.8476993  65.2454913  44.6366493
  56.7116993  63.0474913  42.2676493  56.1326993  62.7724913  42.8596493
  57.3356993  62.4384913  42.2926493  56.7186993  62.9174913  42.3586493
  53.9906993  50.3104913  47.3786493  53.4696993  49.6824913  47.0706493
  54.5816993  49.8734913  47.8496493  54.0016993  50.1524913  47.4026493
  57.2966993  52.4434913  56.6766493  57.4136993  51.9894913  55.9406493
  57.5846993  53.2414913  56.4736493  57.3566993  52.4944913  56.5376493
  52.4166993  63.8734913  42.7186493  53.0726993  63.2984913  42.7336493
  52.8056993  64.6224913  42.4976493  52.5716993  63.8984913  42.6886493
  53.0296993  52.0404913  55.6606493  52.2516993  51.6504913  55.5886493
  53.5206993  51.6284913  55.0696493  52.9866993  51.9214913  55.5626493
  53.2346993  62.3604913  46.2186493  53.6576993  62.0044913  45.5446493
  53.5586993  61.9384913  46.9106493  53.3446993  62.2454913  46.2216493
  56.4656993  65.2124913  45.5146493  57.3096993  65.3164913  45.3196493
  56.1686993  66.0304913  45.5826493  56.5466993  65.3484913  45.4956493
  59.6786993  49.6834913  54.8286493  59.8566993  48.8744913  54.5536493
  59.5356993  50.1244913  54.0896493  59.6836993  49.6294913  54.6786493
  55.4636993  66.4314913  51.2546493  55.7556993  66.3644913  52.0746493
  54.8376993  65.8264913  51.2096493  55.4146993  66.3324913  51.3696493
  50.3776993  52.5884913  53.2466493  50.3736993  53.1754913  53.8926493
  50.9716993  52.9004913  52.6896493  50.4646993  52.7214913  53.2596493
  59.8536993  63.1194913  38.5386493  59.6726993  63.6644913  39.1956493
  60.6196993  63.4094913  38.2376493  59.9396993  63.2434913  38.5916493
  51.3146993  52.1834913  42.1616493  51.2006993  51.3194913  42.1926493
  50.8396993  52.4774913  42.8316493  51.2276993  52.0994913  42.2646493
  53.4566993  64.5934913  50.3766493  52.7586993  64.0854913  50.5026493
  53.7166993  64.3884913  49.5686493  53.3916993  64.4884913  50.2756493
  60.6186993  53.3914913  40.9066493  60.1106993  52.7294913  40.6526493
  60.6706993  53.8954913  40.1966493  60.5516993  53.3684913  40.7646493
  59.2166993  52.6994913  45.3196493  59.2906993  53.2674913  44.6616493
  59.3376993  53.1914913  46.0296493  59.2446993  52.8564913  45.3276493
  54.8176993  63.4444913  52.9436493  55.6586993  63.5074913  52.7216493
  54.7806993  63.8414913  53.7196493  54.9366993  63.5124913  53.0256493
  53.8246993  48.5224913  43.6676493  54.3606993  49.2104913  43.6576493
  53.8276993  48.2484913  42.8396493  53.9036993  48.5834913  43.5436493
  56.7806993  58.9554913  47.6926493  56.9526993  58.7454913  48.5216493
  56.1256993  58.4214913  47.4766493  56.7096993  58.8454913  47.7836493
  57.5306993  58.8934913  50.2826493  57.5836993  59.7404913  50.4846493
  57.2456993  58.5234913  51.0196493  57.4966993  58.9634913  50.4206493
  50.3516993  63.2644913  56.4936493  51.1076993  63.6134913  56.7516493
  50.5286993  62.4114913  56.4366493  50.4896993  63.1894913  56.5236493
  54.2726993  52.3324913  45.3216493  54.5446993  51.9024913  44.6136493
  54.0966993  51.6964913  45.8926493  54.2866993  52.1754913  45.3016493
  54.0966993  59.7594913  44.8706493  54.9476993  59.6794913  44.6976493
  53.7396993  59.0774913  44.4586493  54.1696993  59.6464913  44.7836493
  52.8636993  66.4844913  46.1076493  52.1906993  65.9864913  45.8626493
  53.2666993  66.6694913  45.3566493  52.8236993  66.4384913  45.9606493
  52.4136993  53.4344913  48.4036493  53.2566993  53.6544913  48.3606493
  52.0246993  54.0074913  47.8726493  52.4806993  53.5514913  48.3186493
  56.4646993  59.7664913  43.1056493  57.1776993  60.2614913  43.1956493
  56.6866993  59.1994913  42.4796493  56.6026993  59.7554913  43.0266493
  50.6206993  61.4094913  46.4256493  49.9536993  61.8974913  46.7016493
  51.3006993  61.9544913  46.4546493  50.6226993  61.5614913  46.4706493
  58.2676993  55.1194913  56.5216493  57.7836993  55.6964913  56.9636493
  58.2396993  55.4144913  55.7006493  58.1916993  55.2484913  56.4656493
  50.6866993  58.0934913  41.5286493  50.5016993  57.2544913  41.6806493
  51.3456993  58.0574913  40.9586493  50.7566993  57.9644913  41.4666493
  50.8586993  62.2574913  41.1036493  51.4106993  62.8264913  41.4676493
  50.6266993  61.7424913  41.7686493  50.9056993  62.2654913  41.2556493
  55.0626993  61.2574913  48.1926493  55.5296993  61.5464913  48.8706493
  55.6346993  60.7794913  47.7386493  55.2166993  61.2294913  48.2256493
  50.6886993  60.7064913  38.7316493  51.4446993  60.2744913  38.7896493
  50.7036993  61.2384913  39.4226493  50.8026993  60.7214913  38.8426493
  51.6286993  58.9274913  46.7366493  52.0596993  58.7984913  45.9896493
  51.4236993  59.7754913  46.7106493  51.6616993  59.0334913  46.6226493
  57.9746993  52.4914913  40.3866493  57.9726993  52.3744913  39.5216493
  57.7936993  53.3394913  40.4786493  57.9476993  52.5994913  40.2726493
  55.7126993  62.4434913  45.0186493  55.8386993  63.2864913  45.2056493
  56.3806993  62.0444913  45.4146493  55.8306993  62.5094913  45.1046493
  53.8426993  55.9264913  54.8806493  53.3066993  55.4204913  55.3486493
  53.8626993  55.5364913  54.1006493  53.7656993  55.7934913  54.8346493
  54.3276993  55.3234913  40.0206493  54.1996993  54.8754913  40.7586493
  53.7456993  54.9814913  39.4686493  54.2226993  55.2064913  40.0486493
  54.4946993  57.1534913  46.6196493  53.7136993  57.0944913  46.2366493
  54.5666993  56.4014913  47.0566493  54.3896993  57.0344913  46.6276493
  54.9246993  56.8904913  50.0876493  54.9496993  56.2154913  49.5366493
  54.2786993  57.3864913  49.7756493  54.8336993  56.8634913  49.9606493
  59.0246993  65.6674913  49.4796493  58.7476993  65.0264913  48.9566493
  58.8166993  66.3934913  49.0416493  58.9536993  65.6804913  49.3376493
  52.7236993  58.2454913  55.6466493  52.6866993  58.7464913  54.9326493
  53.0546993  57.4934913  55.3516493  52.7666993  58.2074913  55.4976493
  58.6226993  63.2954913  55.0816493  58.9766993  63.1174913  55.8586493
  58.1866993  62.5664913  54.8826493  58.6106993  63.1614913  55.1676493
  59.5946993  54.0424913  47.7196493  60.0746993  54.7414913  47.9276493
  59.9676993  53.3954913  48.1706493  59.7206993  54.0504913  47.8166493
  56.7056993  65.8104913  41.6666493  56.5586993  65.0344913  42.0376493
  57.3946993  65.6634913  41.1516493  56.7856993  65.6734913  41.6456493
  56.3766993  49.5534913  39.6546493  56.4736993  49.4464913  40.5156493
  55.6686993  50.0594913  39.5896493  56.2866993  49.6124913  39.7726493
  58.9976993  65.3264913  40.0686493  59.6196993  65.4894913  40.6586493
  59.0336993  66.0174913  39.5366493  59.0946993  65.4524913  40.0776493
  53.4986993  57.8604913  40.8976493  53.8226993  57.0814913  40.6756493
  54.1446993  58.2284913  41.3526493  53.6416993  57.7994913  40.9316493
  50.4956993  49.5214913  41.8656493  50.6246993  48.8134913  41.3736493
  50.1286993  49.2034913  42.5906493  50.4606993  49.3694913  41.9006493
  60.1886993  57.2024913  42.3226493  60.2476993  57.8524913  42.9016493
  59.9996993  56.5064913  42.8136493  60.1696993  57.1954913  42.4806493
  54.6846993  51.7194913  38.8346493  54.1736993  51.7724913  38.1286493
  55.4686993  51.9594913  38.5386493  54.7246993  51.7624913  38.6866493
  59.4116993  59.2494913  46.7536493  58.5646993  59.0554913  46.8346493
  59.7356993  59.0844913  47.5466493  59.3336993  59.1964913  46.8826493
  56.1636993  65.9794913  37.6396493  56.6026993  65.2824913  37.9276493
  56.3706993  66.6034913  38.2126493  56.2596993  65.9684913  37.7666493
  53.2596993  58.9424913  49.0696493  53.9816993  59.4304913  49.0326493
  52.9896993  58.9124913  48.2406493  53.3266993  59.0104913  48.9416493
  56.4896993  54.1134913  45.8046493  57.3356993  53.9234913  45.9026493
  56.1196993  53.3364913  45.6666493  56.5596993  53.9704913  45.7986493
  51.3106993  55.4514913  42.4596493  51.7996993  55.1594913  43.1206493
  51.4396993  54.8584913  41.8326493  51.4016993  55.3204913  42.4646493
  55.8356993  56.8854913  37.9456493  55.2256993  56.4804913  38.4196493
  55.4496993  57.0034913  37.1726493  55.6886993  56.8424913  37.9016493
  52.6546993  59.9944913  53.3476493  52.2336993  59.4764913  52.7866493
  52.3026993  60.7804913  53.2046493  52.5406993  60.0344913  53.2436493
  57.2906993  55.3464913  40.6556493  57.5626993  56.1724913  40.7226493
  56.4276993  55.4214913  40.5596493  57.2036993  55.4794913  40.6506493
  50.7706993  51.3164913  47.1916493  50.8146993  51.6604913  46.3906493
  51.5256993  51.5534913  47.5586493  50.8886993  51.4024913  47.1276493
  57.3936993  61.8054913  49.9656493  57.0956993  62.3974913  50.5326493
  57.4486993  62.2474913  49.2166493  57.3576993  61.9584913  49.9386493
  55.3726993  60.7554913  53.3636493  54.5666993  60.4654913  53.5306493
  55.2836993  61.6234913  53.3696493  55.2406993  60.8404913  53.3886493
  59.9096993  58.2284913  49.4566493  60.3856993  58.6024913  50.0846493
  59.0866993  58.3624913  49.7156493  59.8586993  58.3034913  49.5876493
  56.6196993  53.8314913  52.1976493  56.7806993  53.0874913  52.6246493
  56.5746993  53.5824913  51.3626493  56.6366993  53.6844913  52.1376493
  59.1736993  65.6214913  44.6846493  59.7196993  66.3004913  44.7386493
  58.8236993  65.7034913  43.8896493  59.2026993  65.7344913  44.5746493
  58.3716993  49.6394913  52.0776493  59.0766993  49.9594913  51.6756493
  58.6126993  48.8324913  52.3046493  58.5106993  49.5674913  52.0516493
  57.3566993  63.8494913  48.0736493  56.7326993  64.4314913  47.8916493
  57.6046993  63.5634913  47.2876493  57.3006993  63.8934913  47.9306493
  58.9506993  58.6254913  37.9886493  58.1456993  58.4484913  37.7036493
  58.9176993  59.4764913  38.1806493  58.8266993  58.7244913  37.9756493
  54.8806993  54.6924913  48.1386493  55.3206993  54.5894913  47.3926493
  55.4256993  54.3794913  48.7436493  55.0256993  54.6314913  48.1176493
  60.0096993  65.4984913  53.9536493  60.4876993  64.8984913  53.5376493
  59.6586993  65.0554913  54.6186493  60.0286993  65.3444913  53.9906493
  58.4276993  49.6774913  48.1856493  57.6016993  49.5284913  48.4226493
  58.3876993  49.7124913  47.3146493  58.2996993  49.6604913  48.0916493
  60.0686993  60.7174913  52.9736493  59.2736993  60.6534913  53.3246493
  60.1396993  61.5644913  52.7786493  59.9616993  60.8324913  52.9966493
  50.9926993  50.0754913  54.2206493  50.8526993  50.8704913  53.8896493
  50.2066993  49.8324913  54.5096493  50.8556993  50.1574913  54.2146493
  55.8986993  66.9244913  48.2906493  55.9096993  66.9834913  49.1606493
  55.4736993  66.1774913  48.1406493  55.8376993  66.8224913  48.3966493
  54.0566993  52.8194913  41.4456493  54.1826993  52.4904913  40.6476493
  53.2446993  52.5704913  41.6446493  53.9556993  52.7344913  41.3576493
  52.6626993  66.4224913  53.7326493  52.0086993  65.8534913  53.8306493
  52.2876993  67.1954913  53.8836493  52.5106993  66.4524913  53.7696493
  54.0336993  54.8304913  51.8616493  54.4086993  55.4494913  51.3746493
  54.7076993  54.3564913  52.1466493  54.1886993  54.8524913  51.8316493
  51.8086993  53.2784913  51.1366493  51.8856993  53.1094913  50.2836493
  52.5546993  53.6844913  51.3336493  51.9296993  53.3134913  51.0396493
  54.3626993  50.6884913  53.5476493  54.2816993  49.8444913  53.7536493
  54.0486993  50.7324913  52.7346493  54.3046993  50.5704913  53.4576493
  51.2056993  58.5044913  51.3606493  51.5256993  58.7234913  50.5796493
  51.1056993  57.6394913  51.3056493  51.2376993  58.4094913  51.2376493
  52.6616993  54.4404913  37.9786493  51.9896993  54.4544913  38.5346493
  52.7566993  53.5924913  37.7946493  52.5766993  54.3174913  38.0336493
  56.6496993  63.1454913  39.0926493  57.0906993  63.2254913  39.8406493
  55.8446993  62.9294913  39.3506493  56.5956993  63.1254913  39.2416493
  55.9686993  57.7964913  52.7456493  55.5726993  58.5704913  52.8206493
  55.5626993  57.4234913  52.0696493  55.8506993  57.8554913  52.6566493
  53.9786993  62.2154913  39.6936493  53.7346993  61.9084913  40.4736493
  53.9456993  61.5124913  39.1776493  53.9376993  62.0664913  39.7326493
  56.7976993  60.4604913  38.4366493  55.9796993  60.1924913  38.5766493
  56.7696993  61.3124913  38.6216493  56.6726993  60.5474913  38.4846493
  56.3976993  50.7734913  50.1956493  55.5336993  50.8574913  50.2756493
  56.6176993  50.2594913  50.8646493  56.3026993  50.7104913  50.3066493
  58.0036993  55.8504913  53.7736493  57.6816993  55.2744913  53.2036493
  57.6446993  56.6054913  53.5276493  57.9036993  55.8764913  53.6536493
  58.7996993  49.1024913  38.4006493  58.8776993  49.3494913  37.5676493
  58.0566993  49.4794913  38.6586493  58.7016993  49.1944913  38.3156493
  56.4386993  66.2064913  54.0216493  56.4796993  66.3324913  54.8846493
  57.0896993  65.6464913  53.8656493  56.5406993  66.1424913  54.1266493
  53.6176993  50.8564913  50.8436493  53.2746993  50.0894913  50.6096493
  52.9226993  51.3804913  50.9076493  53.4646993  50.8204913  50.8186493
  54.0316993  64.5894913  55.3816493  54.6266993  65.0204913  55.8536493
  53.6676993  65.2134913  54.8926493  54.0656993  64.7454913  55.3786493
  52.2706993  54.1704913  44.7996493  51.9026993  54.4724913  45.5306493
  52.8046993  53.5414913  45.0836493  52.2946993  54.1224913  44.9496493
  51.9586993  62.5784913  52.3106493  51.3846993  62.9944913  52.8196493
  52.6916993  63.0434913  52.4056493  51.9826993  62.7084913  52.3996493
  53.7446993  65.8454913  41.0856493  53.5996993  66.0014913  40.2396493
  54.6106993  65.9244913  41.1636493  53.8516993  65.8804913  40.9726493
  57.9116993  58.2424913  40.8136493  58.0116993  58.3814913  39.9586493
  58.7296993  58.1824913  41.1096493  58.0466993  58.2534913  40.7306493
  57.0506993  51.2174913  53.9296493  57.2846993  50.6414913  53.3166493
  56.2086993  51.0364913  54.0706493  56.9606993  51.1054913  53.8596493
  54.4316993  64.6604913  47.5626493  54.3526993  63.8504913  47.2466493
  53.9876993  65.1474913  46.9906493  54.3546993  64.6124913  47.4316493
  60.0326993  60.7794913  40.0456493  60.7496993  60.4324913  39.6896493
  59.9986993  61.5794913  39.6976493  60.1336993  60.8464913  39.9416493
  52.0036993  66.9044913  51.1436493  52.4966993  66.8484913  51.8616493
  52.1916993  66.1714913  50.7086493  52.1046993  66.7874913  51.1856493
  51.1196993  60.4764913  24.4114083  50.6786993  60.5944913  25.1544083
  50.8366993  59.7014913  24.1264083  51.0126993  60.3794913  24.4794083
  50.8626993  54.2684913  20.9184083  50.0846993  54.4304913  20.5584083
  50.9016993  53.3974913  20.9404083  50.7536993  54.1634913  20.8684083
  54.0016993  59.5314913  19.5904083  53.6096993  59.1604913  18.9044083
  53.9216993  58.9334913  20.2194083  53.9316993  59.3884913  19.5814083
  53.6286993  61.1724913  23.4904083  54.2366993  61.0024913  24.0934083
  52.8776993  61.0324913  23.9114083  53.6076993  61.1264913  23.6414083
  57.9106993  50.5074913  23.4394083  57.8406993  51.1844913  22.8934083
  58.6516993  50.1194913  23.1904083  58.0096993  50.5504913  23.3214083
  52.5196993  64.2634913  19.5674083  52.9866993  64.3474913  18.8354083
  52.9746993  63.6854913  20.0364083  52.6556993  64.1904913  19.5284083
  51.0596993  63.2114913  30.6664083  51.1886993  62.9314913  31.4824083
  50.4496993  62.6704913  30.3574083  50.9886993  63.0904913  30.7414083
  57.6336993  60.7364913  35.7334083  57.3976993  60.7334913  36.5734083
  56.8856993  60.5884913  35.3094083  57.4876993  60.7134913  35.7944083
  52.5056993  57.7324913  24.8684083  52.0436993  57.3404913  24.2414083
  53.2056993  57.2194913  24.9604083  52.5406993  57.5994913  24.7894083
  57.0136993  53.3424913  30.2154083  57.6916993  53.3604913  29.6664083
  56.9686993  52.5064913  30.4604083  57.1066993  53.2214913  30.1704083
  57.6156993  63.9284913  32.9964083  57.7536993  64.6884913  32.5894083
  58.4066993  63.5634913  33.0234083  57.7526993  63.9874913  32.9404083
  54.5066993  55.8324913  24.8914083  55.3236993  55.6454913  25.1344083
  54.0296993  55.2184913  25.2874083  54.5566993  55.7144913  24.9864083
  58.7106993  61.8134913  27.5014083  59.0586993  61.0144913  27.5314083
  59.3756993  62.3174913  27.2464083  58.8606993  61.7694913  27.4684083
  58.7676993  61.2624913  23.7124083  59.0986993  60.6184913  24.1984083
  59.0076993  61.0514913  22.9014083  58.8516993  61.1364913  23.6644083
  60.7356993  55.3934913  35.0514083  59.8876993  55.2944913  34.8734083
  60.7646993  56.1384913  35.5054083  60.6146993  55.4894913  35.0924083
  55.1036993  50.9264913  24.1574083  54.8076993  51.4274913  23.5074083
  55.9706993  51.0044913  24.1004083  55.1876993  51.0124913  24.0534083
  58.0826993  50.0684913  26.3804083  58.1556993  50.9284913  26.5094083
  58.0446993  49.9934913  25.5124083  58.0876993  50.1844913  26.2714083
  50.9616993  55.4934913  27.8814083  50.7056993  56.3244913  27.8064083
  50.2976993  55.1104913  28.2984083  50.8256993  55.5594913  27.9324083
  50.8716993  65.2034913  25.7814083  50.2796993  65.7614913  25.4684083
  51.2976993  64.9344913  25.0694083  50.8476993  65.2454913  25.6304083
  56.7116993  63.0474913  23.2614083  56.1326993  62.7724913  23.8534083
  57.3356993  62.4384913  23.2864083  56.7186993  62.9174913  23.3524083
  53.9906993  50.3104913  28.3724083  53.4696993  49.6824913  28.0644083
  54.5816993  49.8734913  28.8434083  54.0016993  50.1524913  28.3964083
  57.2966993  52.4434913  37.6704083  57.4136993  51.9894913  36.9344083
  57.5846993  53.2414913  37.4674083  57.3566993  52.4944913  37.5314083
  52.4166993  63.8734913  23.7124083  53.0726993  63.2984913  23.7274083
  52.8056993  64.6224913  23.4914083  52.5716993  63.8984913  23.6824083
  53.0296993  52.0404913  36.6544083  52.2516993  51.6504913  36.5824083
  53.5206993  51.6284913  36.0634083  52.9866993  51.9214913  36.5564083
  53.2346993  62.3604913  27.2124083  53.6576993  62.0044913  26.5384083
  53.5586993  61.9384913  27.9044083  53.3446993  62.2454913  27.2154083
  56.4656993  65.2124913  26.5084083  57.3096993  65.3164913  26.3134083
  56.1686993  66.0304913  26.5764083  56.5466993  65.3484913  26.4894083
  59.6786993  49.6834913  35.8224083  59.8566993  48.8744913  35.5474083
  59.5356993  50.1244913  35.0834083  59.6836993  49.6294913  35.6724083
  55.4636993  66.4314913  32.2484083  55.7556993  66.3644913  33.0684083
  54.8376993  65.8264913  32.2034083  55.4146993  66.3324913  32.3634083
  50.3776993  52.5884913  34.2404083  50.3736993  53.1754913  34.8864083
  50.9716993  52.9004913  33.6834083  50.4646993  52.7214913  34.2534083
  59.8536993  63.1194913  19.5324083  59.6726993  63.6644913  20.1894083
  60.6196993  63.4094913  19.2314083  59.9396993  63.2434913  19.5854083
  51.3146993  52.1834913  23.1554083  51.2006993  51.3194913  23.1864083
  50.8396993  52.4774913  23.8254083  51.2276993  52.0994913  23.2584083
  53.4566993  64.5934913  31.3704083  52.7586993  64.0854913  31.4964083
  53.7166993  64.3884913  30.5624083  53.3916993  64.4884913  31.2694083
  60.6186993  53.3914913  21.9004083  60.1106993  52.7294913  21.6464083
  60.6706993  53.8954913  21.1904083  60.5516993  53.3684913  21.7584083
  59.2166993  52.6994913  26.3134083  59.2906993  53.2674913  25.6554083
  59.3376993  53.1914913  27.0234083  59.2446993  52.8564913  26.3214083
  54.8176993  63.4444913  33.9374083  55.6586993  63.5074913  33.7154083
  54.7806993  63.8414913  34.7134083  54.9366993  63.5124913  34.0194083
  53.8246993  48.5224913  24.6614083  54.3606993  49.2104913  24.6514083
  53.8276993  48.2484913  23.8334083  53.9036993  48.5834913  24.5374083
  56.7806993  58.9554913  28.6864083  56.9526993  58.7454913  29.5154083
  56.1256993  58.4214913  28.4704083  56.7096993  58.8454913  28.7774083
  57.5306993  58.8934913  31.2764083  57.5836993  59.7404913  31.4784083
  57.2456993  58.5234913  32.0134083  57.4966993  58.9634913  31.4144083
  50.3516993  63.2644913  37.4874083  51.1076993  63.6134913  37.7454083
  50.5286993  62.4114913  37.4304083  50.4896993  63.1894913  37.5174083
  54.2726993  52.3324913  26.3154083  54.5446993  51.9024913  25.6074083
  54.0966993  51.6964913  26.8864083  54.2866993  52.1754913  26.2954083
  54.0966993  59.7594913  25.8644083  54.9476993  59.6794913  25.6914083
  53.7396993  59.0774913  25.4524083  54.1696993  59.6464913  25.7774083
  52.8636993  66.4844913  27.1014083  52.1906993  65.9864913  26.8564083
  53.2666993  66.6694913  26.3504083  52.8236993  66.4384913  26.9544083
  52.4136993  53.4344913  29.3974083  53.2566993  53.6544913  29.3544083
  52.0246993  54.0074913  28.8664083  52.4806993  53.5514913  29.3124083
  56.4646993  59.7664913  24.0994083  57.1776993  60.2614913  24.1894083
  56.6866993  59.1994913  23.4734083  56.6026993  59.7554913  24.0204083
  50.6206993  61.4094913  27.4194083  49.9536993  61.8974913  27.6954083
  51.3006993  61.9544913  27.4484083  50.6226993  61.5614913  27.4644083
  58.2676993  55.1194913  37.5154083  57.7836993  55.6964913  37.9574083
  58.2396993  55.4144913  36.6944083  58.1916993  55.2484913  37.4594083
  50.6866993  58.0934913  22.5224083  50.5016993  57.2544913  22.6744083
  51.3456993  58.0574913  21.9524083  50.7566993  57.9644913  22.4604083
  50.8586993  62.2574913  22.0974083  51.4106993  62.8264913  22.4614083
  50.6266993  61.7424913  22.7624083  50.9056993  62.2654913  22.2494083
  55.0626993  61.2574913  29.1864083  55.5296993  61.5464913  29.8644083
  55.6346993  60.7794913  28.7324083  55.2166993  61.2294913  29.2194083
  50.6886993  60.7064913  19.7254083  51.4446993  60.2744913  19.7834083
  50.7036993  61.2384913  20.4164083  50.8026993  60.7214913  19.8364083
  51.6286993  58.9274913  27.7304083  52.0596993  58.7984913  26.9834083
  51.4236993  59.7754913  27.7044083  51.6616993  59.0334913  27.6164083
  57.9746993  52.4914913  21.3804083  57.9726993  52.3744913  20.5154083
  57.7936993  53.3394913  21.4724083  57.9476993  52.5994913  21.2664083
  55.7126993  62.4434913  26.0124083  55.8386993  63.2864913  26.1994083
  56.3806993  62.0444913  26.4084083  55.8306993  62.5094913  26.0984083
  53.8426993  55.9264913  35.8744083  53.3066993  55.4204913  36.3424083
  53.8626993  55.5364913  35.0944083  53.7656993  55.7934913  35.8284083
  54.3276993  55.3234913  21.0144083  54.1996993  54.8754913  21.7524083
  53.7456993  54.9814913  20.4624083  54.2226993  55.2064913  21.0424083
  54.4946993  57.1534913  27.6134083  53.7136993  57.0944913  27.2304083
  54.5666993  56.4014913  28.0504083  54.3896993  57.0344913  27.6214083
  54.9246993  56.8904913  31.0814083  54.9496993  56.2154913  30.5304083
  54.2786993  57.3864913  30.7694083  54.8336993  56.8634913  30.9544083
  59.0246993  65.6674913  30.4734083  58.7476993  65.0264913  29.9504083
  58.8166993  66.3934913  30.0354083  58.9536993  65.6804913  30.3314083
  52.7236993  58.2454913  36.6404083  52.6866993  58.7464913  35.9264083
  53.0546993  57.4934913  36.3454083  52.7666993  58.2074913  36.4914083
  58.6226993  63.2954913  36.0754083  58.9766993  63.1174913  36.8524083
  58.1866993  62.5664913  35.8764083  58.6106993  63.1614913  36.1614083
  59.5946993  54.0424913  28.7134083  60.0746993  54.7414913  28.9214083
  59.9676993  53.3954913  29.1644083  59.7206993  54.0504913  28.8104083
  56.7056993  65.8104913  22.6604083  56.5586993  65.0344913  23.0314083
  57.3946993  65.6634913  22.1454083  56.7856993  65.6734913  22.6394083
  56.3766993  49.5534913  20.6484083  56.4736993  49.4464913  21.5094083
  55.6686993  50.0594913  20.5834083  56.2866993  49.6124913  20.7664083
  58.9976993  65.3264913  21.0624083  59.6196993  65.4894913  21.6524083
  59.0336993  66.0174913  20.5304083  59.0946993  65.4524913  21.0714083
  53.4986993  57.8604913  21.8914083  53.8226993  57.0814913  21.6694083
  54.1446993  58.2284913  22.3464083  53.6416993  57.7994913  21.9254083
  50.4956993  49.5214913  22.8594083  50.6246993  48.8134913  22.3674083
  50.1286993  49.2034913  23.5844083  50.4606993  49.3694913  22.8944083
  60.1886993  57.2024913  23.3164083  60.2476993  57.8524913  23.8954083
  59.9996993  56.5064913  23.8074083  60.1696993  57.1954913  23.4744083
  54.6846993  51.7194913  19.8284083  54.1736993  51.7724913  19.1224083
  55.4686993  51.9594913  19.5324083  54.7246993  51.7624913  19.6804083
  59.4116993  59.2494913  27.7474083  58.5646993  59.0554913  27.8284083
  59.7356993  59.0844913  28.5404083  59.3336993  59.1964913  27.8764083
  56.1636993  65.9794913  18.6334083  56.6026993  65.2824913  18.9214083
  56.3706993  66.6034913  19.2064083  56.2596993  65.9684913  18.7604083
  53.2596993  58.9424913  30.0634083  53.9816993  59.4304913  30.0264083
  52.9896993  58.9124913  29.2344083  53.3266993  59.0104913  29.9354083
  56.4896993  54.1134913  26.7984083  57.3356993  53.9234913  26.8964083
  56.1196993  53.3364913  26.6604083  56.5596993  53.9704913  26.7924083
  51.3106993  55.4514913  23.4534083  51.7996993  55.1594913  24.1144083
  51.4396993  54.8584913  22.8264083  51.4016993  55.3204913  23.4584083
  55.8356993  56.8854913  18.9394083  55.2256993  56.4804913  19.4134083
  55.4496993  57.0034913  18.1664083  55.6886993  56.8424913  18.8954083
  52.6546993  59.9944913  34.3414083  52.2336993  59.4764913  33.7804083
  52.3026993  60.7804913  34.1984083  52.5406993  60.0344913  34.2374083
  57.2906993  55.3464913  21.6494083  57.5626993  56.1724913  21.7164083
  56.4276993  55.4214913  21.5534083  57.2036993  55.4794913  21.6444083
  50.7706993  51.3164913  28.1854083  50.8146993  51.6604913  27.3844083
  51.5256993  51.5534913  28.5524083  50.8886993  51.4024913  28.1214083
  57.3936993  61.8054913  30.9594083  57.0956993  62.3974913  31.5264083
  57.4486993  62.2474913  30.2104083  57.3576993  61.9584913  30.9324083
  55.3726993  60.7554913  34.3574083  54.5666993  60.4654913  34.5244083
  55.2836993  61.6234913  34.3634083  55.2406993  60.8404913  34.3824083
  59.9096993  58.2284913  30.4504083  60.3856993  58.6024913  31.0784083
  59.0866993  58.3624913  30.7094083  59.8586993  58.3034913  30.5814083
  56.6196993  53.8314913  33.1914083  56.7806993  53.0874913  33.6184083
  56.5746993  53.5824913  32.3564083  56.6366993  53.6844913  33.1314083
  59.1736993  65.6214913  25.6784083  59.7196993  66.3004913  25.7324083
  58.8236993  65.7034913  24.8834083  59.2026993  65.7344913  25.5684083
  58.3716993  49.6394913  33.0714083  59.0766993  49.9594913  32.6694083
  58.6126993  48.8324913  33.2984083  58.5106993  49.5674913  33.0454083
  57.3566993  63.8494913  29.0674083  56.7326993  64.4314913  28.8854083
  57.6046993  63.5634913  28.2814083  57.3006993  63.8934913  28.9244083
  58.9506993  58.6254913  18.9824083  58.1456993  58.4484913  18.6974083
  58.9176993  59.4764913  19.1744083  58.8266993  58.7244913  18.9694083
  54.8806993  54.6924913  29.1324083  55.3206993  54.5894913  28.3864083
  55.4256993  54.3794913  29.7374083  55.0256993  54.6314913  29.1114083
  60.0096993  65.4984913  34.9474083  60.4876993  64.8984913  34.5314083
  59.6586993  65.0554913  35.6124083  60.0286993  65.3444913  34.9844083
  58.4276993  49.6774913  29.1794083  57.6016993  49.5284913  29.4164083
  58.3876993  49.7124913  28.3084083  58.2996993  49.6604913  29.0854083
  60.0686993  60.7174913  33.9674083  59.2736993  60.6534913  34.3184083
  60.1396993  61.5644913  33.7724083  59.9616993  60.8324913  33.9904083
  50.9926993  50.0754913  35.2144083  50.8526993  50.8704913  34.8834083
  50.2066993  49.8324913  35.5034083  50.8556993  50.1574913  35.2084083
  55.8986993  66.9244913  29.2844083  55.9096993  66.9834913  30.1544083
  55.4736993  66.1774913  29.1344083  55.8376993  66.8224913  29.3904083
  54.0566993  52.8194913  22.4394083  54.1826993  52.4904913  21.6414083
  53.2446993  52.5704913  22.6384083  53.9556993  52.7344913  22.3514083
  52.6626993  66.4224913  34.7264083  52.0086993  65.8534913  34.8244083
  52.2876993  67.1954913  34.8774083  52.5106993  66.4524913  34.7634083
  54.0336993  54.8304913  32.8554083  54.4086993  55.4494913  32.3684083
  54.7076993  54.3564913  33.1404083  54.1886993  54.8524913  32.8254083
  51.8086993  53.2784913  32.1304083  51.8856993  53.1094913  31.2774083
  52.5546993  53.6844913  32.3274083  51.9296993  53.3134913  32.0334083
  54.3626993  50.6884913  34.5414083  54.2816993  49.8444913  34.7474083
  54.0486993  50.7324913  33.7284083  54.3046993  50.5704913  34.4514083
  51.2056993  58.5044913  32.3544083  51.5256993  58.7234913  31.5734083
  51.1056993  57.6394913  32.2994083  51.2376993  58.4094913  32.2314083
  52.6616993  54.4404913  18.9724083  51.9896993  54.4544913  19.5284083
  52.7566993  53.5924913  18.7884083  52.5766993  54.3174913  19.0274083
  56.6496993  63.1454913  20.0864083  57.0906993  63.2254913  20.8344083
  55.8446993  62.9294913  20.3444083  56.5956993  63.1254913  20.2354083
  55.9686993  57.7964913  33.7394083  55.5726993  58.5704913  33.8144083
  55.5626993  57.4234913  33.0634083  55.8506993  57.8554913  33.6504083
  53.9786993  62.2154913  20.6874083  53.7346993  61.9084913  21.4674083
  53.9456993  61.5124913  20.1714083  53.9376993  62.0664913  20.7264083
  56.7976993  60.4604913  19.4304083  55.9796993  60.1924913  19.5704083
  56.7696993  61.3124913  19.6154083  56.6726993  60.5474913  19.4784083
  56.3976993  50.7734913  31.1894083  55.5336993  50.8574913  31.2694083
  56.6176993  50.2594913  31.8584083  56.3026993  50.7104913  31.3004083
  58.0036993  55.8504913  34.7674083  57.6816993  55.2744913  34.1974083
  57.6446993  56.6054913  34.5214083  57.9036993  55.8764913  34.6474083
  58.7996993  49.1024913  19.3944083  58.8776993  49.3494913  18.5614083
  58.0566993  49.4794913  19.6524083  58.7016993  49.1944913  19.3094083
  56.4386993  66.2064913  35.0154083  56.4796993  66.3324913  35.8784083
  57.0896993  65.6464913  34.8594083  56.5406993  66.1424913  35.1204083
  53.6176993  50.8564913  31.8374083  53.2746993  50.0894913  31.6034083
  52.9226993  51.3804913  31.9014083  53.4646993  50.8204913  31.8124083
  54.0316993  64.5894913  36.3754083  54.6266993  65.0204913  36.8474083
  53.6676993  65.2134913  35.8864083  54.0656993  64.7454913  36.3724083
  52.2706993  54.1704913  25.7934083  51.9026993  54.4724913  26.5244083
  52.8046993  53.5414913  26.0774083  52.2946993  54.1224913  25.9434083
  51.9586993  62.5784913  33.3044083  51.3846993  62.9944913  33.8134083
  52.6916993  63.0434913  33.3994083  51.9826993  62.7084913  33.3934083
  53.7446993  65.8454913  22.0794083  53.5996993  66.0014913  21.2334083
  54.6106993  65.9244913  22.1574083  53.8516993  65.8804913  21.9664083
  57.9116993  58.2424913  21.8074083  58.0116993  58.3814913  20.9524083
  58.7296993  58.1824913  22.1034083  58.0466993  58.2534913  21.7244083
  57.0506993  51.2174913  34.9234083  57.2846993  50.6414913  34.3104083
  56.2086993  51.0364913  35.0644083  56.9606993  51.1054913  34.8534083
  54.4316993  64.6604913  28.5564083  54.3526993  63.8504913  28.2404083
  53.9876993  65.1474913  27.9844083  54.3546993  64.6124913  28.4254083
  60.0326993  60.7794913  21.0394083  60.7496993  60.4324913  20.6834083
  59.9986993  61.5794913  20.6914083  60.1336993  60.8464913  20.9354083
  52.0036993  66.9044913  32.1374083  52.4966993  66.8484913  32.8554083
  52.1916993  66.1714913  31.7024083  52.1046993  66.7874913  32.1794083
  51.1196993  60.4764913   5.4051673  50.6786993  60.5944913   6.1481673
  50.8366993  59.7014913   5.1201673  51.0126993  60.3794913   5.4731673
  53.6286993  61.1724913   4.4841673  54.2366993  61.0024913   5.0871673
  52.8776993  61.0324913   4.9051673  53.6076993  61.1264913   4.6351673
  57.9106993  50.5074913   4.4331673  57.8406993  51.1844913   3.8871673
  58.6516993  50.1194913   4.1841673  58.0096993  50.5504913   4.3151673
  51.0596993  63.2114913  11.6601673  51.1886993  62.9314913  12.4761673
  50.4496993  62.6704913  11.3511673  50.9886993  63.0904913  11.7351673
  57.6336993  60.7364913  16.7271673  57.3976993  60.7334913  17.5671673
  56.8856993  60.5884913  16.3031673  57.4876993  60.7134913  16.7881673
  52.5056993  57.7324913   5.8621673  52.0436993  57.3404913   5.2351673
  53.2056993  57.2194913   5.9541673  52.5406993  57.5994913   5.7831673
  57.0136993  53.3424913  11.2091673  57.6916993  53.3604913  10.6601673
  56.9686993  52.5064913  11.4541673  57.1066993  53.2214913  11.1641673
  57.6156993  63.9284913  13.9901673  57.7536993  64.6884913  13.5831673
  58.4066993  63.5634913  14.0171673  57.7526993  63.9874913  13.9341673
  54.5066993  55.8324913   5.8851673  55.3236993  55.6454913   6.1281673
  54.0296993  55.2184913   6.2811673  54.5566993  55.7144913   5.9801673
  58.7106993  61.8134913   8.4951673  59.0586993  61.0144913   8.5251673
  59.3756993  62.3174913   8.2401673  58.8606993  61.7694913   8.4621673
  58.7676993  61.2624913   4.7061673  59.0986993  60.6184913   5.1921673
  59.0076993  61.0514913   3.8951673  58.8516993  61.1364913   4.6581673
  60.7356993  55.3934913  16.0451673  59.8876993  55.2944913  15.8671673
  60.7646993  56.1384913  16.4991673  60.6146993  55.4894913  16.0861673
  55.1036993  50.9264913   5.1511673  54.8076993  51.4274913   4.5011673
  55.9706993  51.0044913   5.0941673  55.1876993  51.0124913   5.0471673
  58.0826993  50.0684913   7.3741673  58.1556993  50.9284913   7.5031673
  58.0446993  49.9934913   6.5061673  58.0876993  50.1844913   7.2651673
  50.9616993  55.4934913   8.8751673  50.7056993  56.3244913   8.8001673
  50.2976993  55.1104913   9.2921673  50.8256993  55.5594913   8.9261673
  50.8716993  65.2034913   6.7751673  50.2796993  65.7614913   6.4621673
  51.2976993  64.9344913   6.0631673  50.8476993  65.2454913   6.6241673
  56.7116993  63.0474913   4.2551673  56.1326993  62.7724913   4.8471673
  57.3356993  62.4384913   4.2801673  56.7186993  62.9174913   4.3461673
  53.9906993  50.3104913   9.3661673  53.4696993  49.6824913   9.0581673
  54.5816993  49.8734913   9.8371673  54.0016993  50.1524913   9.3901673
  57.2966993  52.4434913  18.6641673  57.4136993  51.9894913  17.9281673
  57.5846993  53.2414913  18.4611673  57.3566993  52.4944913  18.5251673
  52.4166993  63.8734913   4.7061673  53.0726993  63.2984913   4.7211673
  52.8056993  64.6224913   4.4851673  52.5716993  63.8984913   4.6761673
  53.0296993  52.0404913  17.6481673  52.2516993  51.6504913  17.5761673
  53.5206993  51.6284913  17.0571673  52.9866993  51.9214913  17.5501673
  53.2346993  62.3604913   8.2061673  53.6576993  62.0044913   7.5321673
  53.5586993  61.9384913   8.8981673  53.3446993  62.2454913   8.2091673
  56.4656993  65.2124913   7.5021673  57.3096993  65.3164913   7.3071673
  56.1686993  66.0304913   7.5701673  56.5466993  65.3484913   7.4831673
  59.6786993  49.6834913  16.8161673  59.8566993  48.8744913  16.5411673
  59.5356993  50.1244913  16.0771673  59.6836993  49.6294913  16.6661673
  55.4636993  66.4314913  13.2421673  55.7556993  66.3644913  14.0621673
  54.8376993  65.8264913  13.1971673  55.4146993  66.3324913  13.3571673
  50.3776993  52.5884913  15.2341673  50.3736993  53.1754913  15.8801673
  50.9716993  52.9004913  14.6771673  50.4646993  52.7214913  15.2471673
  51.3146993  52.1834913   4.1491673  51.2006993  51.3194913   4.1801673
  50.8396993  52.4774913   4.8191673  51.2276993  52.0994913   4.2521673
  53.4566993  64.5934913  12.3641673  52.7586993  64.0854913  12.4901673
  53.7166993  64.3884913  11.5561673  53.3916993  64.4884913  12.2631673
  60.6186993  53.3914913   2.8941673  60.1106993  52.7294913   2.6401673
  60.6706993  53.8954913   2.1841673  60.5516993  53.3684913   2.7521673
  59.2166993  52.6994913   7.3071673  59.2906993  53.2674913   6.6491673
  59.3376993  53.1914913   8.0171673  59.2446993  52.8564913   7.3151673
  54.8176993  63.4444913  14.9311673  55.6586993  63.5074913  14.7091673
  54.7806993  63.8414913  15.7071673  54.9366993  63.5124913  15.0131673
  53.8246993  48.5224913   5.6551673  54.3606993  49.2104913   5.6451673
  53.8276993  48.2484913   4.8271673  53.9036993  48.5834913   5.5311673
  56.7806993  58.9554913   9.6801673  56.9526993  58.7454913  10.5091673
  56.1256993  58.4214913   9.4641673  56.7096993  58.8454913   9.7711673
  57.5306993  58.8934913  12.2701673  57.5836993  59.7404913  12.4721673
  57.2456993  58.5234913  13.0071673  57.4966993  58.9634913  12.4081673
  50.3516993  63.2644913  18.4811673  51.1076993  63.6134913  18.7391673
  50.5286993  62.4114913  18.4241673  50.4896993  63.1894913  18.5111673
  54.2726993  52.3324913   7.3091673  54.5446993  51.9024913   6.6011673
  54.0966993  51.6964913   7.8801673  54.2866993  52.1754913   7.2891673
  54.0966993  59.7594913   6.8581673  54.9476993  59.6794913   6.6851673
  53.7396993  59.0774913   6.4461673  54.1696993  59.6464913   6.7711673
  52.8636993  66.4844913   8.0951673  52.1906993  65.9864913   7.8501673
  53.2666993  66.6694913   7.3441673  52.8236993  66.4384913   7.9481673
  52.4136993  53.4344913  10.3911673  53.2566993  53.6544913  10.3481673
  52.0246993  54.0074913   9.8601673  52.4806993  53.5514913  10.3061673
  56.4646993  59.7664913   5.0931673  57.1776993  60.2614913   5.1831673
  56.6866993  59.1994913   4.4671673  56.6026993  59.7554913   5.0141673
  50.6206993  61.4094913   8.4131673  49.9536993  61.8974913   8.6891673
  51.3006993  61.9544913   8.4421673  50.6226993  61.5614913   8.4581673
  58.2676993  55.1194913  18.5091673  57.7836993  55.6964913  18.9511673
  58.2396993  55.4144913  17.6881673  58.1916993  55.2484913  18.4531673
  50.6866993  58.0934913   3.5161673  50.5016993  57.2544913   3.6681673
  51.3456993  58.0574913   2.9461673  50.7566993  57.9644913   3.4541673
  50.8586993  62.2574913   3.0911673  51.4106993  62.8264913   3.4551673
  50.6266993  61.7424913   3.7561673  50.9056993  62.2654913   3.2431673
  55.0626993  61.2574913  10.1801673  55.5296993  61.5464913  10.8581673
  55.6346993  60.7794913   9.7261673  55.2166993  61.2294913  10.2131673
  51.6286993  58.9274913   8.7241673  52.0596993  58.7984913   7.9771673
  51.4236993  59.7754913   8.6981673  51.6616993  59.0334913   8.6101673
  55.7126993  62.4434913   7.0061673  55.8386993  63.2864913   7.1931673
  56.3806993  62.0444913   7.4021673  55.8306993  62.5094913   7.0921673
  53.8426993  55.9264913  16.8681673  53.3066993  55.4204913  17.3361673
  53.8626993  55.5364913  16.0881673  53.7656993  55.7934913  16.8221673
  54.4946993  57.1534913   8.6071673  53.7136993  57.0944913   8.2241673
  54.5666993  56.4014913   9.0441673  54.3896993  57.0344913   8.6151673
  54.9246993  56.8904913  12.0751673  54.9496993  56.2154913  11.5241673
  54.2786993  57.3864913  11.7631673  54.8336993  56.8634913  11.9481673
  59.0246993  65.6674913  11.4671673  58.7476993  65.0264913  10.9441673
  58.8166993  66.3934913  11.0291673  58.9536993  65.6804913  11.3251673
  52.7236993  58.2454913  17.6341673  52.6866993  58.7464913  16.9201673
  53.0546993  57.4934913  17.3391673  52.7666993  58.2074913  17.4851673
  58.6226993  63.2954913  17.0691673  58.9766993  63.1174913  17.8461673
  58.1866993  62.5664913  16.8701673  58.6106993  63.1614913  17.1551673
  59.5946993  54.0424913   9.7071673  60.0746993  54.7414913   9.9151673
  59.9676993  53.3954913  10.1581673  59.7206993  54.0504913   9.8041673
  56.7056993  65.8104913   3.6541673  56.5586993  65.0344913   4.0251673
  57.3946993  65.6634913   3.1391673  56.7856993  65.6734913   3.6331673
  53.4986993  57.8604913   2.8851673  53.8226993  57.0814913   2.6631673
  54.1446993  58.2284913   3.3401673  53.6416993  57.7994913   2.9191673
  50.4956993  49.5214913   3.8531673  50.6246993  48.8134913   3.3611673
  50.1286993  49.2034913   4.5781673  50.4606993  49.3694913   3.8881673
  60.1886993  57.2024913   4.3101673  60.2476993  57.8524913   4.8891673
  59.9996993  56.5064913   4.8011673  60.1696993  57.1954913   4.4681673
  59.4116993  59.2494913   8.7411673  58.5646993  59.0554913   8.8221673
  59.7356993  59.0844913   9.5341673  59.3336993  59.1964913   8.8701673
  53.2596993  58.9424913  11.0571673  53.9816993  59.4304913  11.0201673
  52.9896993  58.9124913  10.2281673  53.3266993  59.0104913  10.9291673
  56.4896993  54.1134913   7.7921673  57.3356993  53.9234913   7.8901673
  56.1196993  53.3364913   7.6541673  56.5596993  53.9704913   7.7861673
  51.3106993  55.4514913   4.4471673  51.7996993  55.1594913   5.1081673
  51.4396993  54.8584913   3.8201673  51.4016993  55.3204913   4.4521673
  52.6546993  59.9944913  15.3351673  52.2336993  59.4764913  14.7741673
  52.3026993  60.7804913  15.1921673  52.5406993  60.0344913  15.2311673
  57.2906993  55.3464913   2.6431673  57.5626993  56.1724913   2.7101673
  56.4276993  55.4214913   2.5471673  57.2036993  55.4794913   2.6381673
  50.7706993  51.3164913   9.1791673  50.8146993  51.6604913   8.3781673
  51.5256993  51.5534913   9.5461673  50.8886993  51.4024913   9.1151673
  57.3936993  61.8054913  11.9531673  57.0956993  62.3974913  12.5201673
  57.4486993  62.2474913  11.2041673  57.3576993  61.9584913  11.9261673
  55.3726993  60.7554913  15.3511673  54.5666993  60.4654913  15.5181673
  55.2836993  61.6234913  15.3571673  55.2406993  60.8404913  15.3761673
  59.9096993  58.2284913  11.4441673  60.3856993  58.6024913  12.0721673
  59.0866993  58.3624913  11.7031673  59.8586993  58.3034913  11.5751673
  56.6196993  53.8314913  14.1851673  56.7806993  53.0874913  14.6121673
  56.5746993  53.5824913  13.3501673  56.6366993  53.6844913  14.1251673
  59.1736993  65.6214913   6.6721673  59.7196993  66.3004913   6.7261673
  58.8236993  65.7034913   5.8771673  59.2026993  65.7344913   6.5621673
  58.3716993  49.6394913  14.0651673  59.0766993  49.9594913  13.6631673
  58.6126993  48.8324913  14.2921673  58.5106993  49.5674913  14.0391673
  57.3566993  63.8494913  10.0611673  56.7326993  64.4314913   9.8791673
  57.6046993  63.5634913   9.2751673  57.3006993  63.8934913   9.9181673
  54.8806993  54.6924913  10.1261673  55.3206993  54.5894913   9.3801673
  55.4256993  54.3794913  10.7311673  55.0256993  54.6314913  10.1051673
  60.0096993  65.4984913  15.9411673  60.4876993  64.8984913  15.5251673
  59.6586993  65.0554913  16.6061673  60.0286993  65.3444913  15.9781673
  58.4276993  49.6774913  10.1731673  57.6016993  49.5284913  10.4101673
  58.3876993  49.7124913   9.3021673  58.2996993  49.6604913  10.0791673
  60.0686993  60.7174913  14.9611673  59.2736993  60.6534913  15.3121673
  60.1396993  61.5644913  14.7661673  59.9616993  60.8324913  14.9841673
  50.9926993  50.0754913  16.2081673  50.8526993  50.8704913  15.8771673
  50.2066993  49.8324913  16.4971673  50.8556993  50.1574913  16.2021673
  55.8986993  66.9244913  10.2781673  55.9096993  66.9834913  11.1481673
  55.4736993  66.1774913  10.1281673  55.8376993  66.8224913  10.3841673
  54.0566993  52.8194913   3.4331673  54.1826993  52.4904913   2.6351673
  53.2446993  52.5704913   3.6321673  53.9556993  52.7344913   3.3451673
  52.6626993  66.4224913  15.7201673  52.0086993  65.8534913  15.8181673
  52.2876993  67.1954913  15.8711673  52.5106993  66.4524913  15.7571673
  54.0336993  54.8304913  13.8491673  54.4086993  55.4494913  13.3621673
  54.7076993  54.3564913  14.1341673  54.1886993  54.8524913  13.8191673
  51.8086993  53.2784913  13.1241673  51.8856993  53.1094913  12.2711673
  52.5546993  53.6844913  13.3211673  51.9296993  53.3134913  13.0271673
  54.3626993  50.6884913  15.5351673  54.2816993  49.8444913  15.7411673
  54.0486993  50.7324913  14.7221673  54.3046993  50.5704913  15.4451673
  51.2056993  58.5044913  13.3481673  51.5256993  58.7234913  12.5671673
  51.1056993  57.6394913  13.2931673  51.2376993  58.4094913  13.2251673
  55.9686993  57.7964913  14.7331673  55.5726993  58.5704913  14.8081673
  55.5626993  57.4234913  14.0571673  55.8506993  57.8554913  14.6441673
  56.3976993  50.7734913  12.1831673  55.5336993  50.8574913  12.2631673
  56.6176993  50.2594913  12.8521673  56.3026993  50.7104913  12.2941673
  58.0036993  55.8504913  15.7611673  57.6816993  55.2744913  15.1911673
  57.6446993  56.6054913  15.5151673  57.9036993  55.8764913  15.6411673
  56.4386993  66.2064913  16.0091673  56.4796993  66.3324913  16.8721673
  57.0896993  65.6464913  15.8531673  56.5406993  66.1424913  16.1141673
  53.6176993  50.8564913  12.8311673  53.2746993  50.0894913  12.5971673
  52.9226993  51.3804913  12.8951673  53.4646993  50.8204913  12.8061673
  54.0316993  64.5894913  17.3691673  54.6266993  65.0204913  17.8411673
  53.6676993  65.2134913  16.8801673  54.0656993  64.7454913  17.3661673
  52.2706993  54.1704913   6.7871673  51.9026993  54.4724913   7.5181673
  52.8046993  53.5414913   7.0711673  52.2946993  54.1224913   6.9371673
  51.9586993  62.5784913  14.2981673  51.3846993  62.9944913  14.8071673
  52.6916993  63.0434913  14.3931673  51.9826993  62.7084913  14.3871673
  53.7446993  65.8454913   3.0731673  53.5996993  66.0014913   2.2271673
  54.6106993  65.9244913   3.1511673  53.8516993  65.8804913   2.9601673
  57.9116993  58.2424913   2.8011673  58.0116993  58.3814913   1.9461673
  58.7296993  58.1824913   3.0971673  58.0466993  58.2534913   2.7181673
  57.0506993  51.2174913  15.9171673  57.2846993  50.6414913  15.3041673
  56.2086993  51.0364913  16.0581673  56.9606993  51.1054913  15.8471673
  54.4316993  64.6604913   9.5501673  54.3526993  63.8504913   9.2341673
  53.9876993  65.1474913   8.9781673  54.3546993  64.6124913   9.4191673
  60.0326993  60.7794913   2.0331673  60.7496993  60.4324913   1.6771673
  59.9986993  61.5794913   1.6851673  60.1336993  60.8464913   1.9291673
  52.0036993  66.9044913  13.1311673  52.4966993  66.8484913  13.8491673
  52.1916993  66.1714913  12.6961673  52.1046993  66.7874913  13.1731673
  51.1196993  41.9983833  81.4301313  50.6786993  42.1163833  82.1731313
  50.8366993  41.2233833  81.1451313  51.0126993  41.9013833  81.4981313
  50.8626993  35.7903833  77.9371313  50.0846993  35.9523833  77.5771313
  50.9016993  34.9193833  77.9591313  50.7536993  35.6853833  77.8871313
  54.0016993  41.0533833  76.6091313  53.6096993  40.6823833  75.9231313
  53.9216993  40.4553833  77.2381313  53.9316993  40.9103833  76.6001313
  53.6286993  42.6943833  80.5091313  54.2366993  42.5243833  81.1121313
  52.8776993  42.5543833  80.9301313  53.6076993  42.6483833  80.6601313
  57.9106993  32.0293833  80.4581313  57.8406993  32.7063833  79.9121313
  58.6516993  31.6413833  80.2091313  58.0096993  32.0723833  80.3401313
  52.5196993  45.7853833  76.5861313  52.9866993  45.8693833  75.8541313
  52.9746993  45.2073833  77.0551313  52.6556993  45.7123833  76.5471313
  51.0596993  44.7333833  87.6851313  51.1886993  44.4533833  88.5011313
  50.4496993  44.1923833  87.3761313  50.9886993  44.6123833  87.7601313
  52.5056993  39.2543833  81.8871313  52.0436993  38.8623833  81.2601313
  53.2056993  38.7413833  81.9791313  52.5406993  39.1213833  81.8081313
  57.0136993  34.8643833  87.2341313  57.6916993  34.8823833  86.6851313
  56.9686993  34.0283833  87.4791313  57.1066993  34.7433833  87.1891313
  57.6156993  45.4503833  90.0151313  57.7536993  46.2103833  89.6081313
  58.4066993  45.0853833  90.0421313  57.7526993  45.5093833  89.9591313
  54.5066993  37.3543833  81.9101313  55.3236993  37.1673833  82.1531313
  54.0296993  36.7403833  82.3061313  54.5566993  37.2363833  82.0051313
  58.7106993  43.3353833  84.5201313  59.0586993  42.5363833  84.5501313
  59.3756993  43.8393833  84.2651313  58.8606993  43.2913833  84.4871313
  58.7676993  42.7843833  80.7311313  59.0986993  42.1403833  81.2171313
  59.0076993  42.5733833  79.9201313  58.8516993  42.6583833  80.6831313
  60.7356993  36.9153833  92.0701313  59.8876993  36.8163833  91.8921313
  60.7646993  37.6603833  92.5241313  60.6146993  37.0113833  92.1111313
  55.1036993  32.4483833  81.1761313  54.8076993  32.9493833  80.5261313
  55.9706993  32.5263833  81.1191313  55.1876993  32.5343833  81.0721313
  58.0826993  31.5903833  83.3991313  58.1556993  32.4503833  83.5281313
  58.0446993  31.5153833  82.5311313  58.0876993  31.7063833  83.2901313
  50.9616993  37.0153833  84.9001313  50.7056993  37.8463833  84.8251313
  50.2976993  36.6323833  85.3171313  50.8256993  37.0813833  84.9511313
  50.8716993  46.7253833  82.8001313  50.2796993  47.2833833  82.4871313
  51.2976993  46.4563833  82.0881313  50.8476993  46.7673833  82.6491313
  56.7116993  44.5693833  80.2801313  56.1326993  44.2943833  80.8721313
  57.3356993  43.9603833  80.3051313  56.7186993  44.4393833  80.3711313
  53.9906993  31.8323833  85.3911313  53.4696993  31.2043833  85.0831313
  54.5816993  31.3953833  85.8621313  54.0016993  31.6743833  85.4151313
  52.4166993  45.3953833  80.7311313  53.0726993  44.8203833  80.7461313
  52.8056993  46.1443833  80.5101313  52.5716993  45.4203833  80.7011313
  53.2346993  43.8823833  84.2311313  53.6576993  43.5263833  83.5571313
  53.5586993  43.4603833  84.9231313  53.3446993  43.7673833  84.2341313
  56.4656993  46.7343833  83.5271313  57.3096993  46.8383833  83.3321313
  56.1686993  47.5523833  83.5951313  56.5466993  46.8703833  83.5081313
  55.4636993  47.9533833  89.2671313  55.7556993  47.8863833  90.0871313
  54.8376993  47.3483833  89.2221313  55.4146993  47.8543833  89.3821313
  50.3776993  34.1103833  91.2591313  50.3736993  34.6973833  91.9051313
  50.9716993  34.4223833  90.7021313  50.4646993  34.2433833  91.2721313
  59.8536993  44.6413833  76.5511313  59.6726993  45.1863833  77.2081313
  60.6196993  44.9313833  76.2501313  59.9396993  44.7653833  76.6041313
  51.3146993  33.7053833  80.1741313  51.2006993  32.8413833  80.2051313
  50.8396993  33.9993833  80.8441313  51.2276993  33.6213833  80.2771313
  53.4566993  46.1153833  88.3891313  52.7586993  45.6073833  88.5151313
  53.7166993  45.9103833  87.5811313  53.3916993  46.0103833  88.2881313
  60.6186993  34.9133833  78.9191313  60.1106993  34.2513833  78.6651313
  60.6706993  35.4173833  78.2091313  60.5516993  34.8903833  78.7771313
  59.2166993  34.2213833  83.3321313  59.2906993  34.7893833  82.6741313
  59.3376993  34.7133833  84.0421313  59.2446993  34.3783833  83.3401313
  54.8176993  44.9663833  90.9561313  55.6586993  45.0293833  90.7341313
  54.7806993  45.3633833  91.7321313  54.9366993  45.0343833  91.0381313
  53.8246993  30.0443833  81.6801313  54.3606993  30.7323833  81.6701313
  53.8276993  29.7703833  80.8521313  53.9036993  30.1053833  81.5561313
  56.7806993  40.4773833  85.7051313  56.9526993  40.2673833  86.5341313
  56.1256993  39.9433833  85.4891313  56.7096993  40.3673833  85.7961313
  57.5306993  40.4153833  88.2951313  57.5836993  41.2623833  88.4971313
  57.2456993  40.0453833  89.0321313  57.4966993  40.4853833  88.4331313
  54.2726993  33.8543833  83.3341313  54.5446993  33.4243833  82.6261313
  54.0966993  33.2183833  83.9051313  54.2866993  33.6973833  83.3141313
  54.0966993  41.2813833  82.8831313  54.9476993  41.2013833  82.7101313
  53.7396993  40.5993833  82.4711313  54.1696993  41.1683833  82.7961313
  52.8636993  48.0063833  84.1201313  52.1906993  47.5083833  83.8751313
  53.2666993  48.1913833  83.3691313  52.8236993  47.9603833  83.9731313
  52.4136993  34.9563833  86.4161313  53.2566993  35.1763833  86.3731313
  52.0246993  35.5293833  85.8851313  52.4806993  35.0733833  86.3311313
  56.4646993  41.2883833  81.1181313  57.1776993  41.7833833  81.2081313
  56.6866993  40.7213833  80.4921313  56.6026993  41.2773833  81.0391313
  50.6206993  42.9313833  84.4381313  49.9536993  43.4193833  84.7141313
  51.3006993  43.4763833  84.4671313  50.6226993  43.0833833  84.4831313
  50.6866993  39.6153833  79.5411313  50.5016993  38.7763833  79.6931313
  51.3456993  39.5793833  78.9711313  50.7566993  39.4863833  79.4791313
  50.8586993  43.7793833  79.1161313  51.4106993  44.3483833  79.4801313
  50.6266993  43.2643833  79.7811313  50.9056993  43.7873833  79.2681313
  55.0626993  42.7793833  86.2051313  55.5296993  43.0683833  86.8831313
  55.6346993  42.3013833  85.7511313  55.2166993  42.7513833  86.2381313
  50.6886993  42.2283833  76.7441313  51.4446993  41.7963833  76.8021313
  50.7036993  42.7603833  77.4351313  50.8026993  42.2433833  76.8551313
  51.6286993  40.4493833  84.7491313  52.0596993  40.3203833  84.0021313
  51.4236993  41.2973833  84.7231313  51.6616993  40.5553833  84.6351313
  57.9746993  34.0133833  78.3991313  57.9726993  33.8963833  77.5341313
  57.7936993  34.8613833  78.4911313  57.9476993  34.1213833  78.2851313
  55.7126993  43.9653833  83.0311313  55.8386993  44.8083833  83.2181313
  56.3806993  43.5663833  83.4271313  55.8306993  44.0313833  83.1171313
  54.3276993  36.8453833  78.0331313  54.1996993  36.3973833  78.7711313
  53.7456993  36.5033833  77.4811313  54.2226993  36.7283833  78.0611313
  54.4946993  38.6753833  84.6321313  53.7136993  38.6163833  84.2491313
  54.5666993  37.9233833  85.0691313  54.3896993  38.5563833  84.6401313
  54.9246993  38.4123833  88.1001313  54.9496993  37.7373833  87.5491313
  54.2786993  38.9083833  87.7881313  54.8336993  38.3853833  87.9731313
  59.0246993  47.1893833  87.4921313  58.7476993  46.5483833  86.9691313
  58.8166993  47.9153833  87.0541313  58.9536993  47.2023833  87.3501313
  59.5946993  35.5643833  85.7321313  60.0746993  36.2633833  85.9401313
  59.9676993  34.9173833  86.1831313  59.7206993  35.5723833  85.8291313
  56.7056993  47.3323833  79.6791313  56.5586993  46.5563833  80.0501313
  57.3946993  47.1853833  79.1641313  56.7856993  47.1953833  79.6581313
  56.3766993  31.0753833  77.6671313  56.4736993  30.9683833  78.5281313
  55.6686993  31.5813833  77.6021313  56.2866993  31.1343833  77.7851313
  58.9976993  46.8483833  78.0811313  59.6196993  47.0113833  78.6711313
  59.0336993  47.5393833  77.5491313  59.0946993  46.9743833  78.0901313
  53.4986993  39.3823833  78.9101313  53.8226993  38.6033833  78.6881313
  54.1446993  39.7503833  79.3651313  53.6416993  39.3213833  78.9441313
  50.4956993  31.0433833  79.8781313  50.6246993  30.3353833  79.3861313
  50.1286993  30.7253833  80.6031313  50.4606993  30.8913833  79.9131313
  60.1886993  38.7243833  80.3351313  60.2476993  39.3743833  80.9141313
  59.9996993  38.0283833  80.8261313  60.1696993  38.7173833  80.4931313
  54.6846993  33.2413833  76.8471313  54.1736993  33.2943833  76.1411313
  55.4686993  33.4813833  76.5511313  54.7246993  33.2843833  76.6991313
  59.4116993  40.7713833  84.7661313  58.5646993  40.5773833  84.8471313
  59.7356993  40.6063833  85.5591313  59.3336993  40.7183833  84.8951313
  56.1636993  47.5013833  75.6521313  56.6026993  46.8043833  75.9401313
  56.3706993  48.1253833  76.2251313  56.2596993  47.4903833  75.7791313
  53.2596993  40.4643833  87.0821313  53.9816993  40.9523833  87.0451313
  52.9896993  40.4343833  86.2531313  53.3266993  40.5323833  86.9541313
  56.4896993  35.6353833  83.8171313  57.3356993  35.4453833  83.9151313
  56.1196993  34.8583833  83.6791313  56.5596993  35.4923833  83.8111313
  51.3106993  36.9733833  80.4721313  51.7996993  36.6813833  81.1331313
  51.4396993  36.3803833  79.8451313  51.4016993  36.8423833  80.4771313
  55.8356993  38.4073833  75.9581313  55.2256993  38.0023833  76.4321313
  55.4496993  38.5253833  75.1851313  55.6886993  38.3643833  75.9141313
  52.6546993  41.5163833  91.3601313  52.2336993  40.9983833  90.7991313
  52.3026993  42.3023833  91.2171313  52.5406993  41.5563833  91.2561313
  57.2906993  36.8683833  78.6681313  57.5626993  37.6943833  78.7351313
  56.4276993  36.9433833  78.5721313  57.2036993  37.0013833  78.6631313
  50.7706993  32.8383833  85.2041313  50.8146993  33.1823833  84.4031313
  51.5256993  33.0753833  85.5711313  50.8886993  32.9243833  85.1401313
  57.3936993  43.3273833  87.9781313  57.0956993  43.9193833  88.5451313
  57.4486993  43.7693833  87.2291313  57.3576993  43.4803833  87.9511313
  55.3726993  42.2773833  91.3761313  54.5666993  41.9873833  91.5431313
  55.2836993  43.1453833  91.3821313  55.2406993  42.3623833  91.4011313
  59.9096993  39.7503833  87.4691313  60.3856993  40.1243833  88.0971313
  59.0866993  39.8843833  87.7281313  59.8586993  39.8253833  87.6001313
  56.6196993  35.3533833  90.2101313  56.7806993  34.6093833  90.6371313
  56.5746993  35.1043833  89.3751313  56.6366993  35.2063833  90.1501313
  59.1736993  47.1433833  82.6971313  59.7196993  47.8223833  82.7511313
  58.8236993  47.2253833  81.9021313  59.2026993  47.2563833  82.5871313
  58.3716993  31.1613833  90.0901313  59.0766993  31.4813833  89.6881313
  58.6126993  30.3543833  90.3171313  58.5106993  31.0893833  90.0641313
  57.3566993  45.3713833  86.0861313  56.7326993  45.9533833  85.9041313
  57.6046993  45.0853833  85.3001313  57.3006993  45.4153833  85.9431313
  58.9506993  40.1473833  76.0011313  58.1456993  39.9703833  75.7161313
  58.9176993  40.9983833  76.1931313  58.8266993  40.2463833  75.9881313
  54.8806993  36.2143833  86.1511313  55.3206993  36.1113833  85.4051313
  55.4256993  35.9013833  86.7561313  55.0256993  36.1533833  86.1301313
  60.0096993  47.0203833  91.9661313  60.4876993  46.4203833  91.5501313
  59.6586993  46.5773833  92.6311313  60.0286993  46.8663833  92.0031313
  58.4276993  31.1993833  86.1981313  57.6016993  31.0503833  86.4351313
  58.3876993  31.2343833  85.3271313  58.2996993  31.1823833  86.1041313
  60.0686993  42.2393833  90.9861313  59.2736993  42.1753833  91.3371313
  60.1396993  43.0863833  90.7911313  59.9616993  42.3543833  91.0091313
  50.9926993  31.5973833  92.2331313  50.8526993  32.3923833  91.9021313
  50.2066993  31.3543833  92.5221313  50.8556993  31.6793833  92.2271313
  55.8986993  48.4463833  86.3031313  55.9096993  48.5053833  87.1731313
  55.4736993  47.6993833  86.1531313  55.8376993  48.3443833  86.4091313
  54.0566993  34.3413833  79.4581313  54.1826993  34.0123833  78.6601313
  53.2446993  34.0923833  79.6571313  53.9556993  34.2563833  79.3701313
  52.6626993  47.9443833  91.7451313  52.0086993  47.3753833  91.8431313
  52.2876993  48.7173833  91.8961313  52.5106993  47.9743833  91.7821313
  54.0336993  36.3523833  89.8741313  54.4086993  36.9713833  89.3871313
  54.7076993  35.8783833  90.1591313  54.1886993  36.3743833  89.8441313
  51.8086993  34.8003833  89.1491313  51.8856993  34.6313833  88.2961313
  52.5546993  35.2063833  89.3461313  51.9296993  34.8353833  89.0521313
  54.3626993  32.2103833  91.5601313  54.2816993  31.3663833  91.7661313
  54.0486993  32.2543833  90.7471313  54.3046993  32.0923833  91.4701313
  51.2056993  40.0263833  89.3731313  51.5256993  40.2453833  88.5921313
  51.1056993  39.1613833  89.3181313  51.2376993  39.9313833  89.2501313
  52.6616993  35.9623833  75.9911313  51.9896993  35.9763833  76.5471313
  52.7566993  35.1143833  75.8071313  52.5766993  35.8393833  76.0461313
  56.6496993  44.6673833  77.1051313  57.0906993  44.7473833  77.8531313
  55.8446993  44.4513833  77.3631313  56.5956993  44.6473833  77.2541313
  55.9686993  39.3183833  90.7581313  55.5726993  40.0923833  90.8331313
  55.5626993  38.9453833  90.0821313  55.8506993  39.3773833  90.6691313
  53.9786993  43.7373833  77.7061313  53.7346993  43.4303833  78.4861313
  53.9456993  43.0343833  77.1901313  53.9376993  43.5883833  77.7451313
  56.7976993  41.9823833  76.4491313  55.9796993  41.7143833  76.5891313
  56.7696993  42.8343833  76.6341313  56.6726993  42.0693833  76.4971313
  56.3976993  32.2953833  88.2081313  55.5336993  32.3793833  88.2881313
  56.6176993  31.7813833  88.8771313  56.3026993  32.2323833  88.3191313
  58.0036993  37.3723833  91.7861313  57.6816993  36.7963833  91.2161313
  57.6446993  38.1273833  91.5401313  57.9036993  37.3983833  91.6661313
  58.7996993  30.6243833  76.4131313  58.8776993  30.8713833  75.5801313
  58.0566993  31.0013833  76.6711313  58.7016993  30.7163833  76.3281313
  53.6176993  32.3783833  88.8561313  53.2746993  31.6113833  88.6221313
  52.9226993  32.9023833  88.9201313  53.4646993  32.3423833  88.8311313
  52.2706993  35.6923833  82.8121313  51.9026993  35.9943833  83.5431313
  52.8046993  35.0633833  83.0961313  52.2946993  35.6443833  82.9621313
  51.9586993  44.1003833  90.3231313  51.3846993  44.5163833  90.8321313
  52.6916993  44.5653833  90.4181313  51.9826993  44.2303833  90.4121313
  53.7446993  47.3673833  79.0981313  53.5996993  47.5233833  78.2521313
  54.6106993  47.4463833  79.1761313  53.8516993  47.4023833  78.9851313
  57.9116993  39.7643833  78.8261313  58.0116993  39.9033833  77.9711313
  58.7296993  39.7043833  79.1221313  58.0466993  39.7753833  78.7431313
  57.0506993  32.7393833  91.9421313  57.2846993  32.1633833  91.3291313
  56.2086993  32.5583833  92.0831313  56.9606993  32.6273833  91.8721313
  54.4316993  46.1823833  85.5751313  54.3526993  45.3723833  85.2591313
  53.9876993  46.6693833  85.0031313  54.3546993  46.1343833  85.4441313
  60.0326993  42.3013833  78.0581313  60.7496993  41.9543833  77.7021313
  59.9986993  43.1013833  77.7101313  60.1336993  42.3683833  77.9541313
  52.0036993  48.4263833  89.1561313  52.4966993  48.3703833  89.8741313
  52.1916993  47.6933833  88.7211313  52.1046993  48.3093833  89.1981313
  51.1196993  41.9983833  62.4238903  50.6786993  42.1163833  63.1668903
  50.8366993  41.2233833  62.1388903  51.0126993  41.9013833  62.4918903
  50.8626993  35.7903833  58.9308903  50.0846993  35.9523833  58.5708903
  50.9016993  34.9193833  58.9528903  50.7536993  35.6853833  58.8808903
  54.0016993  41.0533833  57.6028903  53.6096993  40.6823833  56.9168903
  53.9216993  40.4553833  58.2318903  53.9316993  40.9103833  57.5938903
  53.6286993  42.6943833  61.5028903  54.2366993  42.5243833  62.1058903
  52.8776993  42.5543833  61.9238903  53.6076993  42.6483833  61.6538903
  57.9106993  32.0293833  61.4518903  57.8406993  32.7063833  60.9058903
  58.6516993  31.6413833  61.2028903  58.0096993  32.0723833  61.3338903
  52.5196993  45.7853833  57.5798903  52.9866993  45.8693833  56.8478903
  52.9746993  45.2073833  58.0488903  52.6556993  45.7123833  57.5408903
  51.0596993  44.7333833  68.6788903  51.1886993  44.4533833  69.4948903
  50.4496993  44.1923833  68.3698903  50.9886993  44.6123833  68.7538903
  57.6336993  42.2583833  73.7458903  57.3976993  42.2553833  74.5858903
  56.8856993  42.1103833  73.3218903  57.4876993  42.2353833  73.8068903
  52.5056993  39.2543833  62.8808903  52.0436993  38.8623833  62.2538903
  53.2056993  38.7413833  62.9728903  52.5406993  39.1213833  62.8018903
  57.0136993  34.8643833  68.2278903  57.6916993  34.8823833  67.6788903
  56.9686993  34.0283833  68.4728903  57.1066993  34.7433833  68.1828903
  57.6156993  45.4503833  71.0088903  57.7536993  46.2103833  70.6018903
  58.4066993  45.0853833  71.0358903  57.7526993  45.5093833  70.9528903
  54.5066993  37.3543833  62.9038903  55.3236993  37.1673833  63.1468903
  54.0296993  36.7403833  63.2998903  54.5566993  37.2363833  62.9988903
  58.7106993  43.3353833  65.5138903  59.0586993  42.5363833  65.5438903
  59.3756993  43.8393833  65.2588903  58.8606993  43.2913833  65.4808903
  58.7676993  42.7843833  61.7248903  59.0986993  42.1403833  62.2108903
  59.0076993  42.5733833  60.9138903  58.8516993  42.6583833  61.6768903
  60.7356993  36.9153833  73.0638903  59.8876993  36.8163833  72.8858903
  60.7646993  37.6603833  73.5178903  60.6146993  37.0113833  73.1048903
  55.1036993  32.4483833  62.1698903  54.8076993  32.9493833  61.5198903
  55.9706993  32.5263833  62.1128903  55.1876993  32.5343833  62.0658903
  58.0826993  31.5903833  64.3928903  58.1556993  32.4503833  64.5218903
  58.0446993  31.5153833  63.5248903  58.0876993  31.7063833  64.2838903
  50.9616993  37.0153833  65.8938903  50.7056993  37.8463833  65.8188903
  50.2976993  36.6323833  66.3108903  50.8256993  37.0813833  65.9448903
  50.8716993  46.7253833  63.7938903  50.2796993  47.2833833  63.4808903
  51.2976993  46.4563833  63.0818903  50.8476993  46.7673833  63.6428903
  56.7116993  44.5693833  61.2738903  56.1326993  44.2943833  61.8658903
  57.3356993  43.9603833  61.2988903  56.7186993  44.4393833  61.3648903
  53.9906993  31.8323833  66.3848903  53.4696993  31.2043833  66.0768903
  54.5816993  31.3953833  66.8558903  54.0016993  31.6743833  66.4088903
  57.2966993  33.9653833  75.6828903  57.4136993  33.5113833  74.9468903
  57.5846993  34.7633833  75.4798903  57.3566993  34.0163833  75.5438903
  52.4166993  45.3953833  61.7248903  53.0726993  44.8203833  61.7398903
  52.8056993  46.1443833  61.5038903  52.5716993  45.4203833  61.6948903
  53.0296993  33.5623833  74.6668903  52.2516993  33.1723833  74.5948903
  53.5206993  33.1503833  74.0758903  52.9866993  33.4433833  74.5688903
  53.2346993  43.8823833  65.2248903  53.6576993  43.5263833  64.5508903
  53.5586993  43.4603833  65.9168903  53.3446993  43.7673833  65.2278903
  56.4656993  46.7343833  64.5208903  57.3096993  46.8383833  64.3258903
  56.1686993  47.5523833  64.5888903  56.5466993  46.8703833  64.5018903
  59.6786993  31.2053833  73.8348903  59.8566993  30.3963833  73.5598903
  59.5356993  31.6463833  73.0958903  59.6836993  31.1513833  73.6848903
  55.4636993  47.9533833  70.2608903  55.7556993  47.8863833  71.0808903
  54.8376993  47.3483833  70.2158903  55.4146993  47.8543833  70.3758903
  50.3776993  34.1103833  72.2528903  50.3736993  34.6973833  72.8988903
  50.9716993  34.4223833  71.6958903  50.4646993  34.2433833  72.2658903
  59.8536993  44.6413833  57.5448903  59.6726993  45.1863833  58.2018903
  60.6196993  44.9313833  57.2438903  59.9396993  44.7653833  57.5978903
  51.3146993  33.7053833  61.1678903  51.2006993  32.8413833  61.1988903
  50.8396993  33.9993833  61.8378903  51.2276993  33.6213833  61.2708903
  53.4566993  46.1153833  69.3828903  52.7586993  45.6073833  69.5088903
  53.7166993  45.9103833  68.5748903  53.3916993  46.0103833  69.2818903
  60.6186993  34.9133833  59.9128903  60.1106993  34.2513833  59.6588903
  60.6706993  35.4173833  59.2028903  60.5516993  34.8903833  59.7708903
  59.2166993  34.2213833  64.3258903  59.2906993  34.7893833  63.6678903
  59.3376993  34.7133833  65.0358903  59.2446993  34.3783833  64.3338903
  54.8176993  44.9663833  71.9498903  55.6586993  45.0293833  71.7278903
  54.7806993  45.3633833  72.7258903  54.9366993  45.0343833  72.0318903
  53.8246993  30.0443833  62.6738903  54.3606993  30.7323833  62.6638903
  53.8276993  29.7703833  61.8458903  53.9036993  30.1053833  62.5498903
  56.7806993  40.4773833  66.6988903  56.9526993  40.2673833  67.5278903
  56.1256993  39.9433833  66.4828903  56.7096993  40.3673833  66.7898903
  57.5306993  40.4153833  69.2888903  57.5836993  41.2623833  69.4908903
  57.2456993  40.0453833  70.0258903  57.4966993  40.4853833  69.4268903
  50.3516993  44.7863833  75.4998903  51.1076993  45.1353833  75.7578903
  50.5286993  43.9333833  75.4428903  50.4896993  44.7113833  75.5298903
  54.2726993  33.8543833  64.3278903  54.5446993  33.4243833  63.6198903
  54.0966993  33.2183833  64.8988903  54.2866993  33.6973833  64.3078903
  54.0966993  41.2813833  63.8768903  54.9476993  41.2013833  63.7038903
  53.7396993  40.5993833  63.4648903  54.1696993  41.1683833  63.7898903
  52.8636993  48.0063833  65.1138903  52.1906993  47.5083833  64.8688903
  53.2666993  48.1913833  64.3628903  52.8236993  47.9603833  64.9668903
  52.4136993  34.9563833  67.4098903  53.2566993  35.1763833  67.3668903
  52.0246993  35.5293833  66.8788903  52.4806993  35.0733833  67.3248903
  56.4646993  41.2883833  62.1118903  57.1776993  41.7833833  62.2018903
  56.6866993  40.7213833  61.4858903  56.6026993  41.2773833  62.0328903
  50.6206993  42.9313833  65.4318903  49.9536993  43.4193833  65.7078903
  51.3006993  43.4763833  65.4608903  50.6226993  43.0833833  65.4768903
  58.2676993  36.6413833  75.5278903  57.7836993  37.2183833  75.9698903
  58.2396993  36.9363833  74.7068903  58.1916993  36.7703833  75.4718903
  50.6866993  39.6153833  60.5348903  50.5016993  38.7763833  60.6868903
  51.3456993  39.5793833  59.9648903  50.7566993  39.4863833  60.4728903
  50.8586993  43.7793833  60.1098903  51.4106993  44.3483833  60.4738903
  50.6266993  43.2643833  60.7748903  50.9056993  43.7873833  60.2618903
  55.0626993  42.7793833  67.1988903  55.5296993  43.0683833  67.8768903
  55.6346993  42.3013833  66.7448903  55.2166993  42.7513833  67.2318903
  50.6886993  42.2283833  57.7378903  51.4446993  41.7963833  57.7958903
  50.7036993  42.7603833  58.4288903  50.8026993  42.2433833  57.8488903
  51.6286993  40.4493833  65.7428903  52.0596993  40.3203833  64.9958903
  51.4236993  41.2973833  65.7168903  51.6616993  40.5553833  65.6288903
  57.9746993  34.0133833  59.3928903  57.9726993  33.8963833  58.5278903
  57.7936993  34.8613833  59.4848903  57.9476993  34.1213833  59.2788903
  55.7126993  43.9653833  64.0248903  55.8386993  44.8083833  64.2118903
  56.3806993  43.5663833  64.4208903  55.8306993  44.0313833  64.1108903
  53.8426993  37.4483833  73.8868903  53.3066993  36.9423833  74.3548903
  53.8626993  37.0583833  73.1068903  53.7656993  37.3153833  73.8408903
  54.3276993  36.8453833  59.0268903  54.1996993  36.3973833  59.7648903
  53.7456993  36.5033833  58.4748903  54.2226993  36.7283833  59.0548903
  54.4946993  38.6753833  65.6258903  53.7136993  38.6163833  65.2428903
  54.5666993  37.9233833  66.0628903  54.3896993  38.5563833  65.6338903
  54.9246993  38.4123833  69.0938903  54.9496993  37.7373833  68.5428903
  54.2786993  38.9083833  68.7818903  54.8336993  38.3853833  68.9668903
  59.0246993  47.1893833  68.4858903  58.7476993  46.5483833  67.9628903
  58.8166993  47.9153833  68.0478903  58.9536993  47.2023833  68.3438903
  52.7236993  39.7673833  74.6528903  52.6866993  40.2683833  73.9388903
  53.0546993  39.0153833  74.3578903  52.7666993  39.7293833  74.5038903
  58.6226993  44.8173833  74.0878903  58.9766993  44.6393833  74.8648903
  58.1866993  44.0883833  73.8888903  58.6106993  44.6833833  74.1738903
  59.5946993  35.5643833  66.7258903  60.0746993  36.2633833  66.9338903
  59.9676993  34.9173833  67.1768903  59.7206993  35.5723833  66.8228903
  56.7056993  47.3323833  60.6728903  56.5586993  46.5563833  61.0438903
  57.3946993  47.1853833  60.1578903  56.7856993  47.1953833  60.6518903
  56.3766993  31.0753833  58.6608903  56.4736993  30.9683833  59.5218903
  55.6686993  31.5813833  58.5958903  56.2866993  31.1343833  58.7788903
  58.9976993  46.8483833  59.0748903  59.6196993  47.0113833  59.6648903
  59.0336993  47.5393833  58.5428903  59.0946993  46.9743833  59.0838903
  53.4986993  39.3823833  59.9038903  53.8226993  38.6033833  59.6818903
  54.1446993  39.7503833  60.3588903  53.6416993  39.3213833  59.9378903
  50.4956993  31.0433833  60.8718903  50.6246993  30.3353833  60.3798903
  50.1286993  30.7253833  61.5968903  50.4606993  30.8913833  60.9068903
  60.1886993  38.7243833  61.3288903  60.2476993  39.3743833  61.9078903
  59.9996993  38.0283833  61.8198903  60.1696993  38.7173833  61.4868903
  54.6846993  33.2413833  57.8408903  54.1736993  33.2943833  57.1348903
  55.4686993  33.4813833  57.5448903  54.7246993  33.2843833  57.6928903
  59.4116993  40.7713833  65.7598903  58.5646993  40.5773833  65.8408903
  59.7356993  40.6063833  66.5528903  59.3336993  40.7183833  65.8888903
  56.1636993  47.5013833  56.6458903  56.6026993  46.8043833  56.9338903
  56.3706993  48.1253833  57.2188903  56.2596993  47.4903833  56.7728903
  53.2596993  40.4643833  68.0758903  53.9816993  40.9523833  68.0388903
  52.9896993  40.4343833  67.2468903  53.3266993  40.5323833  67.9478903
  56.4896993  35.6353833  64.8108903  57.3356993  35.4453833  64.9088903
  56.1196993  34.8583833  64.6728903  56.5596993  35.4923833  64.8048903
  51.3106993  36.9733833  61.4658903  51.7996993  36.6813833  62.1268903
  51.4396993  36.3803833  60.8388903  51.4016993  36.8423833  61.4708903
  55.8356993  38.4073833  56.9518903  55.2256993  38.0023833  57.4258903
  55.4496993  38.5253833  56.1788903  55.6886993  38.3643833  56.9078903
  52.6546993  41.5163833  72.3538903  52.2336993  40.9983833  71.7928903
  52.3026993  42.3023833  72.2108903  52.5406993  41.5563833  72.2498903
  57.2906993  36.8683833  59.6618903  57.5626993  37.6943833  59.7288903
  56.4276993  36.9433833  59.5658903  57.2036993  37.0013833  59.6568903
  50.7706993  32.8383833  66.1978903  50.8146993  33.1823833  65.3968903
  51.5256993  33.0753833  66.5648903  50.8886993  32.9243833  66.1338903
  57.3936993  43.3273833  68.9718903  57.0956993  43.9193833  69.5388903
  57.4486993  43.7693833  68.2228903  57.3576993  43.4803833  68.9448903
  55.3726993  42.2773833  72.3698903  54.5666993  41.9873833  72.5368903
  55.2836993  43.1453833  72.3758903  55.2406993  42.3623833  72.3948903
  59.9096993  39.7503833  68.4628903  60.3856993  40.1243833  69.0908903
  59.0866993  39.8843833  68.7218903  59.8586993  39.8253833  68.5938903
  56.6196993  35.3533833  71.2038903  56.7806993  34.6093833  71.6308903
  56.5746993  35.1043833  70.3688903  56.6366993  35.2063833  71.1438903
  59.1736993  47.1433833  63.6908903  59.7196993  47.8223833  63.7448903
  58.8236993  47.2253833  62.8958903  59.2026993  47.2563833  63.5808903
  58.3716993  31.1613833  71.0838903  59.0766993  31.4813833  70.6818903
  58.6126993  30.3543833  71.3108903  58.5106993  31.0893833  71.0578903
  57.3566993  45.3713833  67.0798903  56.7326993  45.9533833  66.8978903
  57.6046993  45.0853833  66.2938903  57.3006993  45.4153833  66.9368903
  58.9506993  40.1473833  56.9948903  58.1456993  39.9703833  56.7098903
  58.9176993  40.9983833  57.1868903  58.8266993  40.2463833  56.9818903
  54.8806993  36.2143833  67.1448903  55.3206993  36.1113833  66.3988903
  55.4256993  35.9013833  67.7498903  55.0256993  36.1533833  67.1238903
  60.0096993  47.0203833  72.9598903  60.4876993  46.4203833  72.5438903
  59.6586993  46.5773833  73.6248903  60.0286993  46.8663833  72.9968903
  58.4276993  31.1993833  67.1918903  57.6016993  31.0503833  67.4288903
  58.3876993  31.2343833  66.3208903  58.2996993  31.1823833  67.0978903
  60.0686993  42.2393833  71.9798903  59.2736993  42.1753833  72.3308903
  60.1396993  43.0863833  71.7848903  59.9616993  42.3543833  72.0028903
  50.9926993  31.5973833  73.2268903  50.8526993  32.3923833  72.8958903
  50.2066993  31.3543833  73.5158903  50.8556993  31.6793833  73.2208903
  55.8986993  48.4463833  67.2968903  55.9096993  48.5053833  68.1668903
  55.4736993  47.6993833  67.1468903  55.8376993  48.3443833  67.4028903
  54.0566993  34.3413833  60.4518903  54.1826993  34.0123833  59.6538903
  53.2446993  34.0923833  60.6508903  53.9556993  34.2563833  60.3638903
  52.6626993  47.9443833  72.7388903  52.0086993  47.3753833  72.8368903
  52.2876993  48.7173833  72.8898903  52.5106993  47.9743833  72.7758903
  54.0336993  36.3523833  70.8678903  54.4086993  36.9713833  70.3808903
  54.7076993  35.8783833  71.1528903  54.1886993  36.3743833  70.8378903
  51.8086993  34.8003833  70.1428903  51.8856993  34.6313833  69.2898903
  52.5546993  35.2063833  70.3398903  51.9296993  34.8353833  70.0458903
  54.3626993  32.2103833  72.5538903  54.2816993  31.3663833  72.7598903
  54.0486993  32.2543833  71.7408903  54.3046993  32.0923833  72.4638903
  51.2056993  40.0263833  70.3668903  51.5256993  40.2453833  69.5858903
  51.1056993  39.1613833  70.3118903  51.2376993  39.9313833  70.2438903
  52.6616993  35.9623833  56.9848903  51.9896993  35.9763833  57.5408903
  52.7566993  35.1143833  56.8008903  52.5766993  35.8393833  57.0398903
  56.6496993  44.6673833  58.0988903  57.0906993  44.7473833  58.8468903
  55.8446993  44.4513833  58.3568903  56.5956993  44.6473833  58.2478903
  55.9686993  39.3183833  71.7518903  55.5726993  40.0923833  71.8268903
  55.5626993  38.9453833  71.0758903  55.8506993  39.3773833  71.6628903
  53.9786993  43.7373833  58.6998903  53.7346993  43.4303833  59.4798903
  53.9456993  43.0343833  58.1838903  53.9376993  43.5883833  58.7388903
  56.7976993  41.9823833  57.4428903  55.9796993  41.7143833  57.5828903
  56.7696993  42.8343833  57.6278903  56.6726993  42.0693833  57.4908903
  56.3976993  32.2953833  69.2018903  55.5336993  32.3793833  69.2818903
  56.6176993  31.7813833  69.8708903  56.3026993  32.2323833  69.3128903
  58.0036993  37.3723833  72.7798903  57.6816993  36.7963833  72.2098903
  57.6446993  38.1273833  72.5338903  57.9036993  37.3983833  72.6598903
  58.7996993  30.6243833  57.4068903  58.8776993  30.8713833  56.5738903
  58.0566993  31.0013833  57.6648903  58.7016993  30.7163833  57.3218903
  56.4386993  47.7283833  73.0278903  56.4796993  47.8543833  73.8908903
  57.0896993  47.1683833  72.8718903  56.5406993  47.6643833  73.1328903
  53.6176993  32.3783833  69.8498903  53.2746993  31.6113833  69.6158903
  52.9226993  32.9023833  69.9138903  53.4646993  32.3423833  69.8248903
  54.0316993  46.1113833  74.3878903  54.6266993  46.5423833  74.8598903
  53.6676993  46.7353833  73.8988903  54.0656993  46.2673833  74.3848903
  52.2706993  35.6923833  63.8058903  51.9026993  35.9943833  64.5368903
  52.8046993  35.0633833  64.0898903  52.2946993  35.6443833  63.9558903
  51.9586993  44.1003833  71.3168903  51.3846993  44.5163833  71.8258903
  52.6916993  44.5653833  71.4118903  51.9826993  44.2303833  71.4058903
  53.7446993  47.3673833  60.0918903  53.5996993  47.5233833  59.2458903
  54.6106993  47.4463833  60.1698903  53.8516993  47.4023833  59.9788903
  57.9116993  39.7643833  59.8198903  58.0116993  39.9033833  58.9648903
  58.7296993  39.7043833  60.1158903  58.0466993  39.7753833  59.7368903
  57.0506993  32.7393833  72.9358903  57.2846993  32.1633833  72.3228903
  56.2086993  32.5583833  73.0768903  56.9606993  32.6273833  72.8658903
  54.4316993  46.1823833  66.5688903  54.3526993  45.3723833  66.2528903
  53.9876993  46.6693833  65.9968903  54.3546993  46.1343833  66.4378903
  60.0326993  42.3013833  59.0518903  60.7496993  41.9543833  58.6958903
  59.9986993  43.1013833  58.7038903  60.1336993  42.3683833  58.9478903
  52.0036993  48.4263833  70.1498903  52.4966993  48.3703833  70.8678903
  52.1916993  47.6933833  69.7148903  52.1046993  48.3093833  70.1918903
  51.1196993  41.9983833  43.4176493  50.6786993  42.1163833  44.1606493
  50.8366993  41.2233833  43.1326493  51.0126993  41.9013833  43.4856493
  50.8626993  35.7903833  39.9246493  50.0846993  35.9523833  39.5646493
  50.9016993  34.9193833  39.9466493  50.7536993  35.6853833  39.8746493
  54.0016993  41.0533833  38.5966493  53.6096993  40.6823833  37.9106493
  53.9216993  40.4553833  39.2256493  53.9316993  40.9103833  38.5876493
  53.6286993  42.6943833  42.4966493  54.2366993  42.5243833  43.0996493
  52.8776993  42.5543833  42.9176493  53.6076993  42.6483833  42.6476493
  57.9106993  32.0293833  42.4456493  57.8406993  32.7063833  41.8996493
  58.6516993  31.6413833  42.1966493  58.0096993  32.0723833  42.3276493
  52.5196993  45.7853833  38.5736493  52.9866993  45.8693833  37.8416493
  52.9746993  45.2073833  39.0426493  52.6556993  45.7123833  38.5346493
  51.0596993  44.7333833  49.6726493  51.1886993  44.4533833  50.4886493
  50.4496993  44.1923833  49.3636493  50.9886993  44.6123833  49.7476493
  57.6336993  42.2583833  54.7396493  57.3976993  42.2553833  55.5796493
  56.8856993  42.1103833  54.3156493  57.4876993  42.2353833  54.8006493
  52.5056993  39.2543833  43.8746493  52.0436993  38.8623833  43.2476493
  53.2056993  38.7413833  43.9666493  52.5406993  39.1213833  43.7956493
  57.0136993  34.8643833  49.2216493  57.6916993  34.8823833  48.6726493
  56.9686993  34.0283833  49.4666493  57.1066993  34.7433833  49.1766493
  57.6156993  45.4503833  52.0026493  57.7536993  46.2103833  51.5956493
  58.4066993  45.0853833  52.0296493  57.7526993  45.5093833  51.9466493
  54.5066993  37.3543833  43.8976493  55.3236993  37.1673833  44.1406493
  54.0296993  36.7403833  44.2936493  54.5566993  37.2363833  43.9926493
  58.7106993  43.3353833  46.5076493  59.0586993  42.5363833  46.5376493
  59.3756993  43.8393833  46.2526493  58.8606993  43.2913833  46.4746493
  58.7676993  42.7843833  42.7186493  59.0986993  42.1403833  43.2046493
  59.0076993  42.5733833  41.9076493  58.8516993  42.6583833  42.6706493
  60.7356993  36.9153833  54.0576493  59.8876993  36.8163833  53.8796493
  60.7646993  37.6603833  54.5116493  60.6146993  37.0113833  54.0986493
  55.1036993  32.4483833  43.1636493  54.8076993  32.9493833  42.5136493
  55.9706993  32.5263833  43.1066493  55.1876993  32.5343833  43.0596493
  58.0826993  31.5903833  45.3866493  58.1556993  32.4503833  45.5156493
  58.0446993  31.5153833  44.5186493  58.0876993  31.7063833  45.2776493
  50.9616993  37.0153833  46.8876493  50.7056993  37.8463833  46.8126493
  50.2976993  36.6323833  47.3046493  50.8256993  37.0813833  46.9386493
  50.8716993  46.7253833  44.7876493  50.2796993  47.2833833  44.4746493
  51.2976993  46.4563833  44.0756493  50.8476993  46.7673833  44.6366493
  56.7116993  44.5693833  42.2676493  56.1326993  44.2943833  42.8596493
  57.3356993  43.9603833  42.2926493  56.7186993  44.4393833  42.3586493
  53.9906993  31.8323833  47.3786493  53.4696993  31.2043833  47.0706493
  54.5816993  31.3953833  47.8496493  54.0016993  31.6743833  47.4026493
  57.2966993  33.9653833  56.6766493  57.4136993  33.5113833  55.9406493
  57.5846993  34.7633833  56.4736493  57.3566993  34.0163833  56.5376493
  52.4166993  45.3953833  42.7186493  53.0726993  44.8203833  42.7336493
  52.8056993  46.1443833  42.4976493  52.5716993  45.4203833  42.6886493
  53.0296993  33.5623833  55.6606493  52.2516993  33.1723833  55.5886493
  53.5206993  33.1503833  55.0696493  52.9866993  33.4433833  55.5626493
  53.2346993  43.8823833  46.2186493  53.6576993  43.5263833  45.5446493
  53.5586993  43.4603833  46.9106493  53.3446993  43.7673833  46.2216493
  56.4656993  46.7343833  45.5146493  57.3096993  46.8383833  45.3196493
  56.1686993  47.5523833  45.5826493  56.5466993  46.8703833  45.4956493
  59.6786993  31.2053833  54.8286493  59.8566993  30.3963833  54.5536493
  59.5356993  31.6463833  54.0896493  59.6836993  31.1513833  54.6786493
  55.4636993  47.9533833  51.2546493  55.7556993  47.8863833  52.0746493
  54.8376993  47.3483833  51.2096493  55.4146993  47.8543833  51.3696493
  50.3776993  34.1103833  53.2466493  50.3736993  34.6973833  53.8926493
  50.9716993  34.4223833  52.6896493  50.4646993  34.2433833  53.2596493
  59.8536993  44.6413833  38.5386493  59.6726993  45.1863833  39.1956493
  60.6196993  44.9313833  38.2376493  59.9396993  44.7653833  38.5916493
  51.3146993  33.7053833  42.1616493  51.2006993  32.8413833  42.1926493
  50.8396993  33.9993833  42.8316493  51.2276993  33.6213833  42.2646493
  53.4566993  46.1153833  50.3766493  52.7586993  45.6073833  50.5026493
  53.7166993  45.9103833  49.5686493  53.3916993  46.0103833  50.2756493
  60.6186993  34.9133833  40.9066493  60.1106993  34.2513833  40.6526493
  60.6706993  35.4173833  40.1966493  60.5516993  34.8903833  40.7646493
  59.2166993  34.2213833  45.3196493  59.2906993  34.7893833  44.6616493
  59.3376993  34.7133833  46.0296493  59.2446993  34.3783833  45.3276493
  54.8176993  44.9663833  52.9436493  55.6586993  45.0293833  52.7216493
  54.7806993  45.3633833  53.7196493  54.9366993  45.0343833  53.0256493
  53.8246993  30.0443833  43.6676493  54.3606993  30.7323833  43.6576493
  53.8276993  29.7703833  42.8396493  53.9036993  30.1053833  43.5436493
  56.7806993  40.4773833  47.6926493  56.9526993  40.2673833  48.5216493
  56.1256993  39.9433833  47.4766493  56.7096993  40.3673833  47.7836493
  57.5306993  40.4153833  50.2826493  57.5836993  41.2623833  50.4846493
  57.2456993  40.0453833  51.0196493  57.4966993  40.4853833  50.4206493
  50.3516993  44.7863833  56.4936493  51.1076993  45.1353833  56.7516493
  50.5286993  43.9333833  56.4366493  50.4896993  44.7113833  56.5236493
  54.2726993  33.8543833  45.3216493  54.5446993  33.4243833  44.6136493
  54.0966993  33.2183833  45.8926493  54.2866993  33.6973833  45.3016493
  54.0966993  41.2813833  44.8706493  54.9476993  41.2013833  44.6976493
  53.7396993  40.5993833  44.4586493  54.1696993  41.1683833  44.7836493
  52.8636993  48.0063833  46.1076493  52.1906993  47.5083833  45.8626493
  53.2666993  48.1913833  45.3566493  52.8236993  47.9603833  45.9606493
  52.4136993  34.9563833  48.4036493  53.2566993  35.1763833  48.3606493
  52.0246993  35.5293833  47.8726493  52.4806993  35.0733833  48.3186493
  56.4646993  41.2883833  43.1056493  57.1776993  41.7833833  43.1956493
  56.6866993  40.7213833  42.4796493  56.6026993  41.2773833  43.0266493
  50.6206993  42.9313833  46.4256493  49.9536993  43.4193833  46.7016493
  51.3006993  43.4763833  46.4546493  50.6226993  43.0833833  46.4706493
  58.2676993  36.6413833  56.5216493  57.7836993  37.2183833  56.9636493
  58.2396993  36.9363833  55.7006493  58.1916993  36.7703833  56.4656493
  50.6866993  39.6153833  41.5286493  50.5016993  38.7763833  41.6806493
  51.3456993  39.5793833  40.9586493  50.7566993  39.4863833  41.4666493
  50.8586993  43.7793833  41.1036493  51.4106993  44.3483833  41.4676493
  50.6266993  43.2643833  41.7686493  50.9056993  43.7873833  41.2556493
  55.0626993  42.7793833  48.1926493  55.5296993  43.0683833  48.8706493
  55.6346993  42.3013833  47.7386493  55.2166993  42.7513833  48.2256493
  50.6886993  42.2283833  38.7316493  51.4446993  41.7963833  38.7896493
  50.7036993  42.7603833  39.4226493  50.8026993  42.2433833  38.8426493
  51.6286993  40.4493833  46.7366493  52.0596993  40.3203833  45.9896493
  51.4236993  41.2973833  46.7106493  51.6616993  40.5553833  46.6226493
  57.9746993  34.0133833  40.3866493  57.9726993  33.8963833  39.5216493
  57.7936993  34.8613833  40.4786493  57.9476993  34.1213833  40.2726493
  55.7126993  43.9653833  45.0186493  55.8386993  44.8083833  45.2056493
  56.3806993  43.5663833  45.4146493  55.8306993  44.0313833  45.1046493
  53.8426993  37.4483833  54.8806493  53.3066993  36.9423833  55.3486493
  53.8626993  37.0583833  54.1006493  53.7656993  37.3153833  54.8346493
  54.3276993  36.8453833  40.0206493  54.1996993  36.3973833  40.7586493
  53.7456993  36.5033833  39.4686493  54.2226993  36.7283833  40.0486493
  54.4946993  38.6753833  46.6196493  53.7136993  38.6163833  46.2366493
  54.5666993  37.9233833  47.0566493  54.3896993  38.5563833  46.6276493
  54.9246993  38.4123833  50.0876493  54.9496993  37.7373833  49.5366493
  54.2786993  38.9083833  49.7756493  54.8336993  38.3853833  49.9606493
  59.0246993  47.1893833  49.4796493  58.7476993  46.5483833  48.9566493
  58.8166993  47.9153833  49.0416493  58.9536993  47.2023833  49.3376493
  52.7236993  39.7673833  55.6466493  52.6866993  40.2683833  54.9326493
  53.0546993  39.0153833  55.3516493  52.7666993  39.7293833  55.4976493
  58.6226993  44.8173833  55.0816493  58.9766993  44.6393833  55.8586493
  58.1866993  44.0883833  54.8826493  58.6106993  44.6833833  55.1676493
  59.5946993  35.5643833  47.7196493  60.0746993  36.2633833  47.9276493
  59.9676993  34.9173833  48.1706493  59.7206993  35.5723833  47.8166493
  56.7056993  47.3323833  41.6666493  56.5586993  46.5563833  42.0376493
  57.3946993  47.1853833  41.1516493  56.7856993  47.1953833  41.6456493
  56.3766993  31.0753833  39.6546493  56.4736993  30.9683833  40.5156493
  55.6686993  31.5813833  39.5896493  56.2866993  31.1343833  39.7726493
  58.9976993  46.8483833  40.0686493  59.6196993  47.0113833  40.6586493
  59.0336993  47.5393833  39.5366493  59.0946993  46.9743833  40.0776493
  53.4986993  39.3823833  40.8976493  53.8226993  38.6033833  40.6756493
  54.1446993  39.7503833  41.3526493  53.6416993  39.3213833  40.9316493
  50.4956993  31.0433833  41.8656493  50.6246993  30.3353833  41.3736493
  50.1286993  30.7253833  42.5906493  50.4606993  30.8913833  41.9006493
  60.1886993  38.7243833  42.3226493  60.2476993  39.3743833  42.9016493
  59.9996993  38.0283833  42.8136493  60.1696993  38.7173833  42.4806493
  54.6846993  33.2413833  38.8346493  54.1736993  33.2943833  38.1286493
  55.4686993  33.4813833  38.5386493  54.7246993  33.2843833  38.6866493
  59.4116993  40.7713833  46.7536493  58.5646993  40.5773833  46.8346493
  59.7356993  40.6063833  47.5466493  59.3336993  40.7183833  46.8826493
  56.1636993  47.5013833  37.6396493  56.6026993  46.8043833  37.9276493
  56.3706993  48.1253833  38.2126493  56.2596993  47.4903833  37.7666493
  53.2596993  40.4643833  49.0696493  53.9816993  40.9523833  49.0326493
  52.9896993  40.4343833  48.2406493  53.3266993  40.5323833  48.9416493
  56.4896993  35.6353833  45.8046493  57.3356993  35.4453833  45.9026493
  56.1196993  34.8583833  45.6666493  56.5596993  35.4923833  45.7986493
  51.3106993  36.9733833  42.4596493  51.7996993  36.6813833  43.1206493
  51.4396993  36.3803833  41.8326493  51.4016993  36.8423833  42.4646493
  55.8356993  38.4073833  37.9456493  55.2256993  38.0023833  38.4196493
  55.4496993  38.5253833  37.1726493  55.6886993  38.3643833  37.9016493
  52.6546993  41.5163833  53.3476493  52.2336993  40.9983833  52.7866493
  52.3026993  42.3023833  53.2046493  52.5406993  41.5563833  53.2436493
  57.2906993  36.8683833  40.6556493  57.5626993  37.6943833  40.7226493
  56.4276993  36.9433833  40.5596493  57.2036993  37.0013833  40.6506493
  50.7706993  32.8383833  47.1916493  50.8146993  33.1823833  46.3906493
  51.5256993  33.0753833  47.5586493  50.8886993  32.9243833  47.1276493
  57.3936993  43.3273833  49.9656493  57.0956993  43.9193833  50.5326493
  57.4486993  43.7693833  49.2166493  57.3576993  43.4803833  49.9386493
  55.3726993  42.2773833  53.3636493  54.5666993  41.9873833  53.5306493
  55.2836993  43.1453833  53.3696493  55.2406993  42.3623833  53.3886493
  59.9096993  39.7503833  49.4566493  60.3856993  40.1243833  50.0846493
  59.0866993  39.8843833  49.7156493  59.8586993  39.8253833  49.5876493
  56.6196993  35.3533833  52.1976493  56.7806993  34.6093833  52.6246493
  56.5746993  35.1043833  51.3626493  56.6366993  35.2063833  52.1376493
  59.1736993  47.1433833  44.6846493  59.7196993  47.8223833  44.7386493
  58.8236993  47.2253833  43.8896493  59.2026993  47.2563833  44.5746493
  58.3716993  31.1613833  52.0776493  59.0766993  31.4813833  51.6756493
  58.6126993  30.3543833  52.3046493  58.5106993  31.0893833  52.0516493
  57.3566993  45.3713833  48.0736493  56.7326993  45.9533833  47.8916493
  57.6046993  45.0853833  47.2876493  57.3006993  45.4153833  47.9306493
  58.9506993  40.1473833  37.9886493  58.1456993  39.9703833  37.7036493
  58.9176993  40.9983833  38.1806493  58.8266993  40.2463833  37.9756493
  54.8806993  36.2143833  48.1386493  55.3206993  36.1113833  47.3926493
  55.4256993  35.9013833  48.7436493  55.0256993  36.1533833  48.1176493
  60.0096993  47.0203833  53.9536493  60.4876993  46.4203833  53.5376493
  59.6586993  46.5773833  54.6186493  60.0286993  46.8663833  53.9906493
  58.4276993  31.1993833  48.1856493  57.6016993  31.0503833  48.4226493
  58.3876993  31.2343833  47.3146493  58.2996993  31.1823833  48.0916493
  60.0686993  42.2393833  52.9736493  59.2736993  42.1753833  53.3246493
  60.1396993  43.0863833  52.7786493  59.9616993  42.3543833  52.9966493
  50.9926993  31.5973833  54.2206493  50.8526993  32.3923833  53.8896493
  50.2066993  31.3543833  54.5096493  50.8556993  31.6793833  54.2146493
  55.8986993  48.4463833  48.2906493  55.9096993  48.5053833  49.1606493
  55.4736993  47.6993833  48.1406493  55.8376993  48.3443833  48.3966493
  54.0566993  34.3413833  41.4456493  54.1826993  34.0123833  40.6476493
  53.2446993  34.0923833  41.6446493  53.9556993  34.2563833  41.3576493
  52.6626993  47.9443833  53.7326493  52.0086993  47.3753833  53.8306493
  52.2876993  48.7173833  53.8836493  52.5106993  47.9743833  53.7696493
  54.0336993  36.3523833  51.8616493  54.4086993  36.9713833  51.3746493
  54.7076993  35.8783833  52.1466493  54.1886993  36.3743833  51.8316493
  51.8086993  34.8003833  51.1366493  51.8856993  34.6313833  50.2836493
  52.5546993  35.2063833  51.3336493  51.9296993  34.8353833  51.0396493
  54.3626993  32.2103833  53.5476493  54.2816993  31.3663833  53.7536493
  54.0486993  32.2543833  52.7346493  54.3046993  32.0923833  53.4576493
  51.2056993  40.0263833  51.3606493  51.5256993  40.2453833  50.5796493
  51.1056993  39.1613833  51.3056493  51.2376993  39.9313833  51.2376493
  52.6616993  35.9623833  37.9786493  51.9896993  35.9763833  38.5346493
  52.7566993  35.1143833  37.7946493  52.5766993  35.8393833  38.0336493
  56.6496993  44.6673833  39.0926493  57.0906993  44.7473833  39.8406493
  55.8446993  44.4513833  39.3506493  56.5956993  44.6473833  39.2416493
  55.9686993  39.3183833  52.7456493  55.5726993  40.0923833  52.8206493
  55.5626993  38.9453833  52.0696493  55.8506993  39.3773833  52.6566493
  53.9786993  43.7373833  39.6936493  53.7346993  43.4303833  40.4736493
  53.9456993  43.0343833  39.1776493  53.9376993  43.5883833  39.7326493
  56.7976993  41.9823833  38.4366493  55.9796993  41.7143833  38.5766493
  56.7696993  42.8343833  38.6216493  56.6726993  42.0693833  38.4846493
  56.3976993  32.2953833  50.1956493  55.5336993  32.3793833  50.2756493
  56.6176993  31.7813833  50.8646493  56.3026993  32.2323833  50.3066493
  58.0036993  37.3723833  53.7736493  57.6816993  36.7963833  53.2036493
  57.6446993  38.1273833  53.5276493  57.9036993  37.3983833  53.6536493
  58.7996993  30.6243833  38.4006493  58.8776993  30.8713833  37.5676493
  58.0566993  31.0013833  38.6586493  58.7016993  30.7163833  38.3156493
  56.4386993  47.7283833  54.0216493  56.4796993  47.8543833  54.8846493
  57.0896993  47.1683833  53.8656493  56.5406993  47.6643833  54.1266493
  53.6176993  32.3783833  50.8436493  53.2746993  31.6113833  50.6096493
  52.9226993  32.9023833  50.9076493  53.4646993  32.3423833  50.8186493
  54.0316993  46.1113833  55.3816493  54.6266993  46.5423833  55.8536493
  53.6676993  46.7353833  54.8926493  54.0656993  46.2673833  55.3786493
  52.2706993  35.6923833  44.7996493  51.9026993  35.9943833  45.5306493
  52.8046993  35.0633833  45.0836493  52.2946993  35.6443833  44.9496493
  51.9586993  44.1003833  52.3106493  51.3846993  44.5163833  52.8196493
  52.6916993  44.5653833  52.4056493  51.9826993  44.2303833  52.3996493
  53.7446993  47.3673833  41.0856493  53.5996993  47.5233833  40.2396493
  54.6106993  47.4463833  41.1636493  53.8516993  47.4023833  40.9726493
  57.9116993  39.7643833  40.8136493  58.0116993  39.9033833  39.9586493
  58.7296993  39.7043833  41.1096493  58.0466993  39.7753833  40.7306493
  57.0506993  32.7393833  53.9296493  57.2846993  32.1633833  53.3166493
  56.2086993  32.5583833  54.0706493  56.9606993  32.6273833  53.8596493
  54.4316993  46.1823833  47.5626493  54.3526993  45.3723833  47.2466493
  53.9876993  46.6693833  46.9906493  54.3546993  46.1343833  47.4316493
  60.0326993  42.3013833  40.0456493  60.7496993  41.9543833  39.6896493
  59.9986993  43.1013833  39.6976493  60.1336993  42.3683833  39.9416493
  52.0036993  48.4263833  51.1436493  52.4966993  48.3703833  51.8616493
  52.1916993  47.6933833  50.7086493  52.1046993  48.3093833  51.1856493
  51.1196993  41.9983833  24.4114083  50.6786993  42.1163833  25.1544083
  50.8366993  41.2233833  24.1264083  51.0126993  41.9013833  24.4794083
  50.8626993  35.7903833  20.9184083  50.0846993  35.9523833  20.5584083
  50.9016993  34.9193833  20.9404083  50.7536993  35.6853833  20.8684083
  54.0016993  41.0533833  19.5904083  53.6096993  40.6823833  18.9044083
  53.9216993  40.4553833  20.2194083  53.9316993  40.9103833  19.5814083
  53.6286993  42.6943833  23.4904083  54.2366993  42.5243833  24.0934083
  52.8776993  42.5543833  23.9114083  53.6076993  42.6483833  23.6414083
  57.9106993  32.0293833  23.4394083  57.8406993  32.7063833  22.8934083
  58.6516993  31.6413833  23.1904083  58.0096993  32.0723833  23.3214083
  52.5196993  45.7853833  19.5674083  52.9866993  45.8693833  18.8354083
  52.9746993  45.2073833  20.0364083  52.6556993  45.7123833  19.5284083
  51.0596993  44.7333833  30.6664083  51.1886993  44.4533833  31.4824083
  50.4496993  44.1923833  30.3574083  50.9886993  44.6123833  30.7414083
  57.6336993  42.2583833  35.7334083  57.3976993  42.2553833  36.5734083
  56.8856993  42.1103833  35.3094083  57.4876993  42.2353833  35.7944083
  52.5056993  39.2543833  24.8684083  52.0436993  38.8623833  24.2414083
  53.2056993  38.7413833  24.9604083  52.5406993  39.1213833  24.7894083
  57.0136993  34.8643833  30.2154083  57.6916993  34.8823833  29.6664083
  56.9686993  34.0283833  30.4604083  57.1066993  34.7433833  30.1704083
  57.6156993  45.4503833  32.9964083  57.7536993  46.2103833  32.5894083
  58.4066993  45.0853833  33.0234083  57.7526993  45.5093833  32.9404083
  54.5066993  37.3543833  24.8914083  55.3236993  37.1673833  25.1344083
  54.0296993  36.7403833  25.2874083  54.5566993  37.2363833  24.9864083
  58.7106993  43.3353833  27.5014083  59.0586993  42.5363833  27.5314083
  59.3756993  43.8393833  27.2464083  58.8606993  43.2913833  27.4684083
  58.7676993  42.7843833  23.7124083  59.0986993  42.1403833  24.1984083
  59.0076993  42.5733833  22.9014083  58.8516993  42.6583833  23.6644083
  60.7356993  36.9153833  35.0514083  59.8876993  36.8163833  34.8734083
  60.7646993  37.6603833  35.5054083  60.6146993  37.0113833  35.0924083
  55.1036993  32.4483833  24.1574083  54.8076993  32.9493833  23.5074083
  55.9706993  32.5263833  24.1004083  55.1876993  32.5343833  24.0534083
  58.0826993  31.5903833  26.3804083  58.1556993  32.4503833  26.5094083
  58.0446993  31.5153833  25.5124083  58.0876993  31.7063833  26.2714083
  50.9616993  37.0153833  27.8814083  50.7056993  37.8463833  27.8064083
  50.2976993  36.6323833  28.2984083  50.8256993  37.0813833  27.9324083
  50.8716993  46.7253833  25.7814083  50.2796993  47.2833833  25.4684083
  51.2976993  46.4563833  25.0694083  50.8476993  46.7673833  25.6304083
  56.7116993  44.5693833  23.2614083  56.1326993  44.2943833  23.8534083
  57.3356993  43.9603833  23.2864083  56.7186993  44.4393833  23.3524083
  53.9906993  31.8323833  28.3724083  53.4696993  31.2043833  28.0644083
  54.5816993  31.3953833  28.8434083  54.0016993  31.6743833  28.3964083
  57.2966993  33.9653833  37.6704083  57.4136993  33.5113833  36.9344083
  57.5846993  34.7633833  37.4674083  57.3566993  34.0163833  37.5314083
  52.4166993  45.3953833  23.7124083  53.0726993  44.8203833  23.7274083
  52.8056993  46.1443833  23.4914083  52.5716993  45.4203833  23.6824083
  53.0296993  33.5623833  36.6544083  52.2516993  33.1723833  36.5824083
  53.5206993  33.1503833  36.0634083  52.9866993  33.4433833  36.5564083
  53.2346993  43.8823833  27.2124083  53.6576993  43.5263833  26.5384083
  53.5586993  43.4603833  27.9044083  53.3446993  43.7673833  27.2154083
  56.4656993  46.7343833  26.5084083  57.3096993  46.8383833  26.3134083
  56.1686993  47.5523833  26.5764083  56.5466993  46.8703833  26.4894083
  59.6786993  31.2053833  35.8224083  59.8566993  30.3963833  35.5474083
  59.5356993  31.6463833  35.0834083  59.6836993  31.1513833  35.6724083
  55.4636993  47.9533833  32.2484083  55.7556993  47.8863833  33.0684083
  54.8376993  47.3483833  32.2034083  55.4146993  47.8543833  32.3634083
  50.3776993  34.1103833  34.2404083  50.3736993  34.6973833  34.8864083
  50.9716993  34.4223833  33.6834083  50.4646993  34.2433833  34.2534083
  59.8536993  44.6413833  19.5324083  59.6726993  45.1863833  20.1894083
  60.6196993  44.9313833  19.2314083  59.9396993  44.7653833  19.5854083
  51.3146993  33.7053833  23.1554083  51.2006993  32.8413833  23.1864083
  50.8396993  33.9993833  23.8254083  51.2276993  33.6213833  23.2584083
  53.4566993  46.1153833  31.3704083  52.7586993  45.6073833  31.4964083
  53.7166993  45.9103833  30.5624083  53.3916993  46.0103833  31.2694083
  60.6186993  34.9133833  21.9004083  60.1106993  34.2513833  21.6464083
  60.6706993  35.4173833  21.1904083  60.5516993  34.8903833  21.7584083
  59.2166993  34.2213833  26.3134083  59.2906993  34.7893833  25.6554083
  59.3376993  34.7133833  27.0234083  59.2446993  34.3783833  26.3214083
  54.8176993  44.9663833  33.9374083  55.6586993  45.0293833  33.7154083
  54.7806993  45.3633833  34.7134083  54.9366993  45.0343833  34.0194083
  53.8246993  30.0443833  24.6614083  54.3606993  30.7323833  24.6514083
  53.8276993  29.7703833  23.8334083  53.9036993  30.1053833  24.5374083
  56.7806993  40.4773833  28.6864083  56.9526993  40.2673833  29.5154083
  56.1256993  39.9433833  28.4704083  56.7096993  40.3673833  28.7774083
  57.5306993  40.4153833  31.2764083  57.5836993  41.2623833  31.4784083
  57.2456993  40.0453833  32.0134083  57.4966993  40.4853833  31.4144083
  50.3516993  44.7863833  37.4874083  51.1076993  45.1353833  37.7454083
  50.5286993  43.9333833  37.4304083  50.4896993  44.7113833  37.5174083
  54.2726993  33.8543833  26.3154083  54.5446993  33.4243833  25.6074083
  54.0966993  33.2183833  26.8864083  54.2866993  33.6973833  26.2954083
  54.0966993  41.2813833  25.8644083  54.9476993  41.2013833  25.6914083
  53.7396993  40.5993833  25.4524083  54.1696993  41.1683833  25.7774083
  52.8636993  48.0063833  27.1014083  52.1906993  47.5083833  26.8564083
  53.2666993  48.1913833  26.3504083  52.8236993  47.9603833  26.9544083
  52.4136993  34.9563833  29.3974083  53.2566993  35.1763833  29.3544083
  52.0246993  35.5293833  28.8664083  52.4806993  35.0733833  29.3124083
  56.4646993  41.2883833  24.0994083  57.1776993  41.7833833  24.1894083
  56.6866993  40.7213833  23.4734083  56.6026993  41.2773833  24.0204083
  50.6206993  42.9313833  27.4194083  49.9536993  43.4193833  27.6954083
  51.3006993  43.4763833  27.4484083  50.6226993  43.0833833  27.4644083
  58.2676993  36.6413833  37.5154083  57.7836993  37.2183833  37.9574083
  58.2396993  36.9363833  36.6944083  58.1916993  36.7703833  37.4594083
  50.6866993  39.6153833  22.5224083  50.5016993  38.7763833  22.6744083
  51.3456993  39.5793833  21.9524083  50.7566993  39.4863833  22.4604083
  50.8586993  43.7793833  22.0974083  51.4106993  44.3483833  22.4614083
  50.6266993  43.2643833  22.7624083  50.9056993  43.7873833  22.2494083
  55.0626993  42.7793833  29.1864083  55.5296993  43.0683833  29.8644083
  55.6346993  42.3013833  28.7324083  55.2166993  42.7513833  29.2194083
  50.6886993  42.2283833  19.7254083  51.4446993  41.7963833  19.7834083
  50.7036993  42.7603833  20.4164083  50.8026993  42.2433833  19.8364083
  51.6286993  40.4493833  27.7304083  52.0596993  40.3203833  26.9834083
  51.4236993  41.2973833  27.7044083  51.6616993  40.5553833  27.6164083
  57.9746993  34.0133833  21.3804083  57.9726993  33.8963833  20.5154083
  57.7936993  34.8613833  21.4724083  57.9476993  34.1213833  21.2664083
  55.7126993  43.9653833  26.0124083  55.8386993  44.8083833  26.1994083
  56.3806993  43.5663833  26.4084083  55.8306993  44.0313833  26.0984083
  53.8426993  37.4483833  35.8744083  53.3066993  36.9423833  36.3424083
  53.8626993  37.0583833  35.0944083  53.7656993  37.3153833  35.8284083
  54.3276993  36.8453833  21.0144083  54.1996993  36.3973833  21.7524083
  53.7456993  36.5033833  20.4624083  54.2226993  36.7283833  21.0424083
  54.4946993  38.6753833  27.6134083  53.7136993  38.6163833  27.2304083
  54.5666993  37.9233833  28.0504083  54.3896993  38.5563833  27.6214083
  54.9246993  38.4123833  31.0814083  54.9496993  37.7373833  30.5304083
  54.2786993  38.9083833  30.7694083  54.8336993  38.3853833  30.9544083
  59.0246993  47.1893833  30.4734083  58.7476993  46.5483833  29.9504083
  58.8166993  47.9153833  30.0354083  58.9536993  47.2023833  30.3314083
  52.7236993  39.7673833  36.6404083  52.6866993  40.2683833  35.9264083
  53.0546993  39.0153833  36.3454083  52.7666993  39.7293833  36.4914083
  58.6226993  44.8173833  36.0754083  58.9766993  44.6393833  36.8524083
  58.1866993  44.0883833  35.8764083  58.6106993  44.6833833  36.1614083
  59.5946993  35.5643833  28.7134083  60.0746993  36.2633833  28.9214083
  59.9676993  34.9173833  29.1644083  59.7206993  35.5723833  28.8104083
  56.7056993  47.3323833  22.6604083  56.5586993  46.5563833  23.0314083
  57.3946993  47.1853833  22.1454083  56.7856993  47.1953833  22.6394083
  56.3766993  31.0753833  20.6484083  56.4736993  30.9683833  21.5094083
  55.6686993  31.5813833  20.5834083  56.2866993  31.1343833  20.7664083
  58.9976993  46.8483833  21.0624083  59.6196993  47.0113833  21.6524083
  59.0336993  47.5393833  20.5304083  59.0946993  46.9743833  21.0714083
  53.4986993  39.3823833  21.8914083  53.8226993  38.6033833  21.6694083
  54.1446993  39.7503833  22.3464083  53.6416993  39.3213833  21.9254083
  50.4956993  31.0433833  22.8594083  50.6246993  30.3353833  22.3674083
  50.1286993  30.7253833  23.5844083  50.4606993  30.8913833  22.8944083
  60.1886993  38.7243833  23.3164083  60.2476993  39.3743833  23.8954083
  59.9996993  38.0283833  23.8074083  60.1696993  38.7173833  23.4744083
  54.6846993  33.2413833  19.8284083  54.1736993  33.2943833  19.1224083
  55.4686993  33.4813833  19.5324083  54.7246993  33.2843833  19.6804083
  59.4116993  40.7713833  27.7474083  58.5646993  40.5773833  27.8284083
  59.7356993  40.6063833  28.5404083  59.3336993  40.7183833  27.8764083
  56.1636993  47.5013833  18.6334083  56.6026993  46.8043833  18.9214083
  56.3706993  48.1253833  19.2064083  56.2596993  47.4903833  18.7604083
  53.2596993  40.4643833  30.0634083  53.9816993  40.9523833  30.0264083
  52.9896993  40.4343833  29.2344083  53.3266993  40.5323833  29.9354083
  56.4896993  35.6353833  26.7984083  57.3356993  35.4453833  26.8964083
  56.1196993  34.8583833  26.6604083  56.5596993  35.4923833  26.7924083
  51.3106993  36.9733833  23.4534083  51.7996993  36.6813833  24.1144083
  51.4396993  36.3803833  22.8264083  51.4016993  36.8423833  23.4584083
  55.8356993  38.4073833  18.9394083  55.2256993  38.0023833  19.4134083
  55.4496993  38.5253833  18.1664083  55.6886993  38.3643833  18.8954083
  52.6546993  41.5163833  34.3414083  52.2336993  40.9983833  33.7804083
  52.3026993  42.3023833  34.1984083  52.5406993  41.5563833  34.2374083
  57.2906993  36.8683833  21.6494083  57.5626993  37.6943833  21.7164083
  56.4276993  36.9433833  21.5534083  57.2036993  37.0013833  21.6444083
  50.7706993  32.8383833  28.1854083  50.8146993  33.1823833  27.3844083
  51.5256993  33.0753833  28.5524083  50.8886993  32.9243833  28.1214083
  57.3936993  43.3273833  30.9594083  57.0956993  43.9193833  31.5264083
  57.4486993  43.7693833  30.2104083  57.3576993  43.4803833  30.9324083
  55.3726993  42.2773833  34.3574083  54.5666993  41.9873833  34.5244083
  55.2836993  43.1453833  34.3634083  55.2406993  42.3623833  34.3824083
  59.9096993  39.7503833  30.4504083  60.3856993  40.1243833  31.0784083
  59.0866993  39.8843833  30.7094083  59.8586993  39.8253833  30.5814083
  56.6196993  35.3533833  33.1914083  56.7806993  34.6093833  33.6184083
  56.5746993  35.1043833  32.3564083  56.6366993  35.2063833  33.1314083
  59.1736993  47.1433833  25.6784083  59.7196993  47.8223833  25.7324083
  58.8236993  47.2253833  24.8834083  59.2026993  47.2563833  25.5684083
  58.3716993  31.1613833  33.0714083  59.0766993  31.4813833  32.6694083
  58.6126993  30.3543833  33.2984083  58.5106993  31.0893833  33.0454083
  57.3566993  45.3713833  29.0674083  56.7326993  45.9533833  28.8854083
  57.6046993  45.0853833  28.2814083  57.3006993  45.4153833  28.9244083
  58.9506993  40.1473833  18.9824083  58.1456993  39.9703833  18.6974083
  58.9176993  40.9983833  19.1744083  58.8266993  40.2463833  18.9694083
  54.8806993  36.2143833  29.1324083  55.3206993  36.1113833  28.3864083
  55.4256993  35.9013833  29.7374083  55.0256993  36.1533833  29.1114083
  60.0096993  47.0203833  34.9474083  60.4876993  46.4203833  34.5314083
  59.6586993  46.5773833  35.6124083  60.0286993  46.8663833  34.9844083
  58.4276993  31.1993833  29.1794083  57.6016993  31.0503833  29.4164083
  58.3876993  31.2343833  28.3084083  58.2996993  31.1823833  29.0854083
  60.0686993  42.2393833  33.9674083  59.2736993  42.1753833  34.3184083
  60.1396993  43.0863833  33.7724083  59.9616993  42.3543833  33.9904083
  50.9926993  31.5973833  35.2144083  50.8526993  32.3923833  34.8834083
  50.2066993  31.3543833  35.5034083  50.8556993  31.6793833  35.2084083
  55.8986993  48.4463833  29.2844083  55.9096993  48.5053833  30.1544083
  55.4736993  47.6993833  29.1344083  55.8376993  48.3443833  29.3904083
  54.0566993  34.3413833  22.4394083  54.1826993  34.0123833  21.6414083
  53.2446993  34.0923833  22.6384083  53.9556993  34.2563833  22.3514083
  52.6626993  47.9443833  34.7264083  52.0086993  47.3753833  34.8244083
  52.2876993  48.7173833  34.8774083  52.5106993  47.9743833  34.7634083
  54.0336993  36.3523833  32.8554083  54.4086993  36.9713833  32.3684083
  54.7076993  35.8783833  33.1404083  54.1886993  36.3743833  32.8254083
  51.8086993  34.8003833  32.1304083  51.8856993  34.6313833  31.2774083
  52.5546993  35.2063833  32.3274083  51.9296993  34.8353833  32.0334083
  54.3626993  32.2103833  34.5414083  54.2816993  31.3663833  34.7474083
  54.0486993  32.2543833  33.7284083  54.3046993  32.0923833  34.4514083
  51.2056993  40.0263833  32.3544083  51.5256993  40.2453833  31.5734083
  51.1056993  39.1613833  32.2994083  51.2376993  39.9313833  32.2314083
  52.6616993  35.9623833  18.9724083  51.9896993  35.9763833  19.5284083
  52.7566993  35.1143833  18.7884083  52.5766993  35.8393833  19.0274083
  56.6496993  44.6673833  20.0864083  57.0906993  44.7473833  20.8344083
  55.8446993  44.4513833  20.3444083  56.5956993  44.6473833  20.2354083
  55.9686993  39.3183833  33.7394083  55.5726993  40.0923833  33.8144083
  55.5626993  38.9453833  33.0634083  55.8506993  39.3773833  33.6504083
  53.9786993  43.7373833  20.6874083  53.7346993  43.4303833  21.4674083
  53.9456993  43.0343833  20.1714083  53.9376993  43.5883833  20.7264083
  56.7976993  41.9823833  19.4304083  55.9796993  41.7143833  19.5704083
  56.7696993  42.8343833  19.6154083  56.6726993  42.0693833  19.4784083
  56.3976993  32.2953833  31.1894083  55.5336993  32.3793833  31.2694083
  56.6176993  31.7813833  31.8584083  56.3026993  32.2323833  31.3004083
  58.0036993  37.3723833  34.7674083  57.6816993  36.7963833  34.1974083
  57.6446993  38.1273833  34.5214083  57.9036993  37.3983833  34.6474083
  58.7996993  30.6243833  19.3944083  58.8776993  30.8713833  18.5614083
  58.0566993  31.0013833  19.6524083  58.7016993  30.7163833  19.3094083
  56.4386993  47.7283833  35.0154083  56.4796993  47.8543833  35.8784083
  57.0896993  47.1683833  34.8594083  56.5406993  47.6643833  35.1204083
  53.6176993  32.3783833  31.8374083  53.2746993  31.6113833  31.6034083
  52.9226993  32.9023833  31.9014083  53.4646993  32.3423833  31.8124083
  54.0316993  46.1113833  36.3754083  54.6266993  46.5423833  36.8474083
  53.6676993  46.7353833  35.8864083  54.0656993  46.2673833  36.3724083
  52.2706993  35.6923833  25.7934083  51.9026993  35.9943833  26.5244083
  52.8046993  35.0633833  26.0774083  52.2946993  35.6443833  25.9434083
  51.9586993  44.1003833  33.3044083  51.3846993  44.5163833  33.8134083
  52.6916993  44.5653833  33.3994083  51.9826993  44.2303833  33.3934083
  53.7446993  47.3673833  22.0794083  53.5996993  47.5233833  21.2334083
  54.6106993  47.4463833  22.1574083  53.8516993  47.4023833  21.9664083
  57.9116993  39.7643833  21.8074083  58.0116993  39.9033833  20.9524083
  58.7296993  39.7043833  22.1034083  58.0466993  39.7753833  21.7244083
  57.0506993  32.7393833  34.9234083  57.2846993  32.1633833  34.3104083
  56.2086993  32.5583833  35.0644083  56.9606993  32.6273833  34.8534083
  54.4316993  46.1823833  28.5564083  54.3526993  45.3723833  28.2404083
  53.9876993  46.6693833  27.9844083  54.3546993  46.1343833  28.4254083
  60.0326993  42.3013833  21.0394083  60.7496993  41.9543833  20.6834083
  59.9986993  43.1013833  20.6914083  60.1336993  42.3683833  20.9354083
  52.0036993  48.4263833  32.1374083  52.4966993  48.3703833  32.8554083
  52.1916993  47.6933833  31.7024083  52.1046993  48.3093833  32.1794083
  51.1196993  41.9983833   5.4051673  50.6786993  42.1163833   6.1481673
  50.8366993  41.2233833   5.1201673  51.0126993  41.9013833   5.4731673
  53.6286993  42.6943833   4.4841673  54.2366993  42.5243833   5.0871673
  52.8776993  42.5543833   4.9051673  53.6076993  42.6483833   4.6351673
  57.9106993  32.0293833   4.4331673  57.8406993  32.7063833   3.8871673
  58.6516993  31.6413833   4.1841673  58.0096993  32.0723833   4.3151673
  51.0596993  44.7333833  11.6601673  51.1886993  44.4533833  12.4761673
  50.4496993  44.1923833  11.3511673  50.9886993  44.6123833  11.7351673
  57.6336993  42.2583833  16.7271673  57.3976993  42.2553833  17.5671673
  56.8856993  42.1103833  16.3031673  57.4876993  42.2353833  16.7881673
  52.5056993  39.2543833   5.8621673  52.0436993  38.8623833   5.2351673
  53.2056993  38.7413833   5.9541673  52.5406993  39.1213833   5.7831673
  57.0136993  34.8643833  11.2091673  57.6916993  34.8823833  10.6601673
  56.9686993  34.0283833  11.4541673  57.1066993  34.7433833  11.1641673
  57.6156993  45.4503833  13.9901673  57.7536993  46.2103833  13.5831673
  58.4066993  45.0853833  14.0171673  57.7526993  45.5093833  13.9341673
  54.5066993  37.3543833   5.8851673  55.3236993  37.1673833   6.1281673
  54.0296993  36.7403833   6.2811673  54.5566993  37.2363833   5.9801673
  58.7106993  43.3353833   8.4951673  59.0586993  42.5363833   8.5251673
  59.3756993  43.8393833   8.2401673  58.8606993  43.2913833   8.4621673
  58.7676993  42.7843833   4.7061673  59.0986993  42.1403833   5.1921673
  59.0076993  42.5733833   3.8951673  58.8516993  42.6583833   4.6581673
  60.7356993  36.9153833  16.0451673  59.8876993  36.8163833  15.8671673
  60.7646993  37.6603833  16.4991673  60.6146993  37.0113833  16.0861673
  55.1036993  32.4483833   5.1511673  54.8076993  32.9493833   4.5011673
  55.9706993  32.5263833   5.0941673  55.1876993  32.5343833   5.0471673
  58.0826993  31.5903833   7.3741673  58.1556993  32.4503833   7.5031673
  58.0446993  31.5153833   6.5061673  58.0876993  31.7063833   7.2651673
  50.9616993  37.0153833   8.8751673  50.7056993  37.8463833   8.8001673
  50.2976993  36.6323833   9.2921673  50.8256993  37.0813833   8.9261673
  50.8716993  46.7253833   6.7751673  50.2796993  47.2833833   6.4621673
  51.2976993  46.4563833   6.0631673  50.8476993  46.7673833   6.6241673
  56.7116993  44.5693833   4.2551673  56.1326993  44.2943833   4.8471673
  57.3356993  43.9603833   4.2801673  56.7186993  44.4393833   4.3461673
  53.9906993  31.8323833   9.3661673  53.4696993  31.2043833   9.0581673
  54.5816993  31.3953833   9.8371673  54.0016993  31.6743833   9.3901673
  57.2966993  33.9653833  18.6641673  57.4136993  33.5113833  17.9281673
  57.5846993  34.7633833  18.4611673  57.3566993  34.0163833  18.5251673
  52.4166993  45.3953833   4.7061673  53.0726993  44.8203833   4.7211673
  52.8056993  46.1443833   4.4851673  52.5716993  45.4203833   4.6761673
  53.0296993  33.5623833  17.6481673  52.2516993  33.1723833  17.5761673
  53.5206993  33.1503833  17.0571673  52.9866993  33.4433833  17.5501673
  53.2346993  43.8823833   8.2061673  53.6576993  43.5263833   7.5321673
  53.5586993  43.4603833   8.8981673  53.3446993  43.7673833   8.2091673
  56.4656993  46.7343833   7.5021673  57.3096993  46.8383833   7.3071673
  56.1686993  47.5523833   7.5701673  56.5466993  46.8703833   7.4831673
  59.6786993  31.2053833  16.8161673  59.8566993  30.3963833  16.5411673
  59.5356993  31.6463833  16.0771673  59.6836993  31.1513833  16.6661673
  55.4636993  47.9533833  13.2421673  55.7556993  47.8863833  14.0621673
  54.8376993  47.3483833  13.1971673  55.4146993  47.8543833  13.3571673
  50.3776993  34.1103833  15.2341673  50.3736993  34.6973833  15.8801673
  50.9716993  34.4223833  14.6771673  50.4646993  34.2433833  15.2471673
  51.3146993  33.7053833   4.1491673  51.2006993  32.8413833   4.1801673
  50.8396993  33.9993833   4.8191673  51.2276993  33.6213833   4.2521673
  53.4566993  46.1153833  12.3641673  52.7586993  45.6073833  12.4901673
  53.7166993  45.9103833  11.5561673  53.3916993  46.0103833  12.2631673
  60.6186993  34.9133833   2.8941673  60.1106993  34.2513833   2.6401673
  60.6706993  35.4173833   2.1841673  60.5516993  34.8903833   2.7521673
  59.2166993  34.2213833   7.3071673  59.2906993  34.7893833   6.6491673
  59.3376993  34.7133833   8.0171673  59.2446993  34.3783833   7.3151673
  54.8176993  44.9663833  14.9311673  55.6586993  45.0293833  14.7091673
  54.7806993  45.3633833  15.7071673  54.9366993  45.0343833  15.0131673
  53.8246993  30.0443833   5.6551673  54.3606993  30.7323833   5.6451673
  53.8276993  29.7703833   4.8271673  53.9036993  30.1053833   5.5311673
  56.7806993  40.4773833   9.6801673  56.9526993  40.2673833  10.5091673
  56.1256993  39.9433833   9.4641673  56.7096993  40.3673833   9.7711673
  57.5306993  40.4153833  12.2701673  57.5836993  41.2623833  12.4721673
  57.2456993  40.0453833  13.0071673  57.4966993  40.4853833  12.4081673
  50.3516993  44.7863833  18.4811673  51.1076993  45.1353833  18.7391673
  50.5286993  43.9333833  18.4241673  50.4896993  44.7113833  18.5111673
  54.2726993  33.8543833   7.3091673  54.5446993  33.4243833   6.6011673
  54.0966993  33.2183833   7.8801673  54.2866993  33.6973833   7.2891673
  54.0966993  41.2813833   6.8581673  54.9476993  41.2013833   6.6851673
  53.7396993  40.5993833   6.4461673  54.1696993  41.1683833   6.7711673
  52.8636993  48.0063833   8.0951673  52.1906993  47.5083833   7.8501673
  53.2666993  48.1913833   7.3441673  52.8236993  47.9603833   7.9481673
  52.4136993  34.9563833  10.3911673  53.2566993  35.1763833  10.3481673
  52.0246993  35.5293833   9.8601673  52.4806993  35.0733833  10.3061673
  56.4646993  41.2883833   5.0931673  57.1776993  41.7833833   5.1831673
  56.6866993  40.7213833   4.4671673  56.6026993  41.2773833   5.0141673
  50.6206993  42.9313833   8.4131673  49.9536993  43.4193833   8.6891673
  51.3006993  43.4763833   8.4421673  50.6226993  43.0833833   8.4581673
  58.2676993  36.6413833  18.5091673  57.7836993  37.2183833  18.9511673
  58.2396993  36.9363833  17.6881673  58.1916993  36.7703833  18.4531673
  50.6866993  39.6153833   3.5161673  50.5016993  38.7763833   3.6681673
  51.3456993  39.5793833   2.9461673  50.7566993  39.4863833   3.4541673
  50.8586993  43.7793833   3.0911673  51.4106993  44.3483833   3.4551673
  50.6266993  43.2643833   3.7561673  50.9056993  43.7873833   3.2431673
  55.0626993  42.7793833  10.1801673  55.5296993  43.0683833  10.8581673
  55.6346993  42.3013833   9.7261673  55.2166993  42.7513833  10.2131673
  51.6286993  40.4493833   8.7241673  52.0596993  40.3203833   7.9771673
  51.4236993  41.2973833   8.6981673  51.6616993  40.5553833   8.6101673
  55.7126993  43.9653833   7.0061673  55.8386993  44.8083833   7.1931673
  56.3806993  43.5663833   7.4021673  55.8306993  44.0313833   7.0921673
  53.8426993  37.4483833  16.8681673  53.3066993  36.9423833  17.3361673
  53.8626993  37.0583833  16.0881673  53.7656993  37.3153833  16.8221673
  54.4946993  38.6753833   8.6071673  53.7136993  38.6163833   8.2241673
  54.5666993  37.9233833   9.0441673  54.3896993  38.5563833   8.6151673
  54.9246993  38.4123833  12.0751673  54.9496993  37.7373833  11.5241673
  54.2786993  38.9083833  11.7631673  54.8336993  38.3853833  11.9481673
  59.0246993  47.1893833  11.4671673  58.7476993  46.5483833  10.9441673
  58.8166993  47.9153833  11.0291673  58.9536993  47.2023833  11.3251673
  52.7236993  39.7673833  17.6341673  52.6866993  40.2683833  16.9201673
  53.0546993  39.0153833  17.3391673  52.7666993  39.7293833  17.4851673
  58.6226993  44.8173833  17.0691673  58.9766993  44.6393833  17.8461673
  58.1866993  44.0883833  16.8701673  58.6106993  44.6833833  17.1551673
  59.5946993  35.5643833   9.7071673  60.0746993  36.2633833   9.9151673
  59.9676993  34.9173833  10.1581673  59.7206993  35.5723833   9.8041673
  56.7056993  47.3323833   3.6541673  56.5586993  46.5563833   4.0251673
  57.3946993  47.1853833   3.1391673  56.7856993  47.1953833   3.6331673
  53.4986993  39.3823833   2.8851673  53.8226993  38.6033833   2.6631673
  54.1446993  39.7503833   3.3401673  53.6416993  39.3213833   2.9191673
  50.4956993  31.0433833   3.8531673  50.6246993  30.3353833   3.3611673
  50.1286993  30.7253833   4.5781673  50.4606993  30.8913833   3.8881673
  60.1886993  38.7243833   4.3101673  60.2476993  39.3743833   4.8891673
  59.9996993  38.0283833   4.8011673  60.1696993  38.7173833   4.4681673
  59.4116993  40.7713833   8.7411673  58.5646993  40.5773833   8.8221673
  59.7356993  40.6063833   9.5341673  59.3336993  40.7183833   8.8701673
  53.2596993  40.4643833  11.0571673  53.9816993  40.9523833  11.0201673
  52.9896993  40.4343833  10.2281673  53.3266993  40.5323833  10.9291673
  56.4896993  35.6353833   7.7921673  57.3356993  35.4453833   7.8901673
  56.1196993  34.8583833   7.6541673  56.5596993  35.4923833   7.7861673
  51.3106993  36.9733833   4.4471673  51.7996993  36.6813833   5.1081673
  51.4396993  36.3803833   3.8201673  51.4016993  36.8423833   4.4521673
  52.6546993  41.5163833  15.3351673  52.2336993  40.9983833  14.7741673
  52.3026993  42.3023833  15.1921673  52.5406993  41.5563833  15.2311673
  57.2906993  36.8683833   2.6431673  57.5626993  37.6943833   2.7101673
  56.4276993  36.9433833   2.5471673  57.2036993  37.0013833   2.6381673
  50.7706993  32.8383833   9.1791673  50.8146993  33.1823833   8.3781673
  51.5256993  33.0753833   9.5461673  50.8886993  32.9243833   9.1151673
  57.3936993  43.3273833  11.9531673  57.0956993  43.9193833  12.5201673
  57.4486993  43.7693833  11.2041673  57.3576993  43.4803833  11.9261673
  55.3726993  42.2773833  15.3511673  54.5666993  41.9873833  15.5181673
  55.2836993  43.1453833  15.3571673  55.2406993  42.3623833  15.3761673
  59.9096993  39.7503833  11.4441673  60.3856993  40.1243833  12.0721673
  59.0866993  39.8843833  11.7031673  59.8586993  39.8253833  11.5751673
  56.6196993  35.3533833  14.1851673  56.7806993  34.6093833  14.6121673
  56.5746993  35.1043833  13.3501673  56.6366993  35.2063833  14.1251673
  59.1736993  47.1433833   6.6721673  59.7196993  47.8223833   6.7261673
  58.8236993  47.2253833   5.8771673  59.2026993  47.2563833   6.5621673
  58.3716993  31.1613833  14.0651673  59.0766993  31.4813833  13.6631673
  58.6126993  30.3543833  14.2921673  58.5106993  31.0893833  14.0391673
  57.3566993  45.3713833  10.0611673  56.7326993  45.9533833   9.8791673
  57.6046993  45.0853833   9.2751673  57.3006993  45.4153833   9.9181673
  54.8806993  36.2143833  10.1261673  55.3206993  36.1113833   9.3801673
  55.4256993  35.9013833  10.7311673  55.0256993  36.1533833  10.1051673
  60.0096993  47.0203833  15.9411673  60.4876993  46.4203833  15.5251673
  59.6586993  46.5773833  16.6061673  60.0286993  46.8663833  15.9781673
  58.4276993  31.1993833  10.1731673  57.6016993  31.0503833  10.4101673
  58.3876993  31.2343833   9.3021673  58.2996993  31.1823833  10.0791673
  60.0686993  42.2393833  14.9611673  59.2736993  42.1753833  15.3121673
  60.1396993  43.0863833  14.7661673  59.9616993  42.3543833  14.9841673
  50.9926993  31.5973833  16.2081673  50.8526993  32.3923833  15.8771673
  50.2066993  31.3543833  16.4971673  50.8556993  31.6793833  16.2021673
  55.8986993  48.4463833  10.2781673  55.9096993  48.5053833  11.1481673
  55.4736993  47.6993833  10.1281673  55.8376993  48.3443833  10.3841673
  54.0566993  34.3413833   3.4331673  54.1826993  34.0123833   2.6351673
  53.2446993  34.0923833   3.6321673  53.9556993  34.2563833   3.3451673
  52.6626993  47.9443833  15.7201673  52.0086993  47.3753833  15.8181673
  52.2876993  48.7173833  15.8711673  52.5106993  47.9743833  15.7571673
  54.0336993  36.3523833  13.8491673  54.4086993  36.9713833  13.3621673
  54.7076993  35.8783833  14.1341673  54.1886993  36.3743833  13.8191673
  51.8086993  34.8003833  13.1241673  51.8856993  34.6313833  12.2711673
  52.5546993  35.2063833  13.3211673  51.9296993  34.8353833  13.0271673
  54.3626993  32.2103833  15.5351673  54.2816993  31.3663833  15.7411673
  54.0486993  32.2543833  14.7221673  54.3046993  32.0923833  15.4451673
  51.2056993  40.0263833  13.3481673  51.5256993  40.2453833  12.5671673
  51.1056993  39.1613833  13.2931673  51.2376993  39.9313833  13.2251673
  55.9686993  39.3183833  14.7331673  55.5726993  40.0923833  14.8081673
  55.5626993  38.9453833  14.0571673  55.8506993  39.3773833  14.6441673
  56.3976993  32.2953833  12.1831673  55.5336993  32.3793833  12.2631673
  56.6176993  31.7813833  12.8521673  56.3026993  32.2323833  12.2941673
  58.0036993  37.3723833  15.7611673  57.6816993  36.7963833  15.1911673
  57.6446993  38.1273833  15.5151673  57.9036993  37.3983833  15.6411673
  56.4386993  47.7283833  16.0091673  56.4796993  47.8543833  16.8721673
  57.0896993  47.1683833  15.8531673  56.5406993  47.6643833  16.1141673
  53.6176993  32.3783833  12.8311673  53.2746993  31.6113833  12.5971673
  52.9226993  32.9023833  12.8951673  53.4646993  32.3423833  12.8061673
  54.0316993  46.1113833  17.3691673  54.6266993  46.5423833  17.8411673
  53.6676993  46.7353833  16.8801673  54.0656993  46.2673833  17.3661673
  52.2706993  35.6923833   6.7871673  51.9026993  35.9943833   7.5181673
  52.8046993  35.0633833   7.0711673  52.2946993  35.6443833   6.9371673
  51.9586993  44.1003833  14.2981673  51.3846993  44.5163833  14.8071673
  52.6916993  44.5653833  14.3931673  51.9826993  44.2303833  14.3871673
  53.7446993  47.3673833   3.0731673  53.5996993  47.5233833   2.2271673
  54.6106993  47.4463833   3.1511673  53.8516993  47.4023833   2.9601673
  57.9116993  39.7643833   2.8011673  58.0116993  39.9033833   1.9461673
  58.7296993  39.7043833   3.0971673  58.0466993  39.7753833   2.7181673
  57.0506993  32.7393833  15.9171673  57.2846993  32.1633833  15.3041673
  56.2086993  32.5583833  16.0581673  56.9606993  32.6273833  15.8471673
  54.4316993  46.1823833   9.5501673  54.3526993  45.3723833   9.2341673
  53.9876993  46.6693833   8.9781673  54.3546993  46.1343833   9.4191673
  60.0326993  42.3013833   2.0331673  60.7496993  41.9543833   1.6771673
  59.9986993  43.1013833   1.6851673  60.1336993  42.3683833   1.9291673
  52.0036993  48.4263833  13.1311673  52.4966993  48.3703833  13.8491673
  52.1916993  47.6933833  12.6961673  52.1046993  48.3093833  13.1731673
  51.1196993  23.5202753  81.4301313  50.6786993  23.6382753  82.1731313
  50.8366993  22.7452753  81.1451313  51.0126993  23.4232753  81.4981313
  50.8626993  17.3122753  77.9371313  50.0846993  17.4742753  77.5771313
  50.9016993  16.4412753  77.9591313  50.7536993  17.2072753  77.8871313
  54.0016993  22.5752753  76.6091313  53.6096993  22.2042753  75.9231313
  53.9216993  21.9772753  77.2381313  53.9316993  22.4322753  76.6001313
  53.6286993  24.2162753  80.5091313  54.2366993  24.0462753  81.1121313
  52.8776993  24.0762753  80.9301313  53.6076993  24.1702753  80.6601313
  57.9106993  13.5512753  80.4581313  57.8406993  14.2282753  79.9121313
  58.6516993  13.1632753  80.2091313  58.0096993  13.5942753  80.3401313
  52.5196993  27.3072753  76.5861313  52.9866993  27.3912753  75.8541313
  52.9746993  26.7292753  77.0551313  52.6556993  27.2342753  76.5471313
  51.0596993  26.2552753  87.6851313  51.1886993  25.9752753  88.5011313
  50.4496993  25.7142753  87.3761313  50.9886993  26.1342753  87.7601313
  52.5056993  20.7762753  81.8871313  52.0436993  20.3842753  81.2601313
  53.2056993  20.2632753  81.9791313  52.5406993  20.6432753  81.8081313
  57.0136993  16.3862753  87.2341313  57.6916993  16.4042753  86.6851313
  56.9686993  15.5502753  87.4791313  57.1066993  16.2652753  87.1891313
  57.6156993  26.9722753  90.0151313  57.7536993  27.7322753  89.6081313
  58.4066993  26.6072753  90.0421313  57.7526993  27.0312753  89.9591313
  54.5066993  18.8762753  81.9101313  55.3236993  18.6892753  82.1531313
  54.0296993  18.2622753  82.3061313  54.5566993  18.7582753  82.0051313
  58.7106993  24.8572753  84.5201313  59.0586993  24.0582753  84.5501313
  59.3756993  25.3612753  84.2651313  58.8606993  24.8132753  84.4871313
  58.7676993  24.3062753  80.7311313  59.0986993  23.6622753  81.2171313
  59.0076993  24.0952753  79.9201313  58.8516993  24.1802753  80.6831313
  60.7356993  18.4372753  92.0701313  59.8876993  18.3382753  91.8921313
  60.7646993  19.1822753  92.5241313  60.6146993  18.5332753  92.1111313
  55.1036993  13.9702753  81.1761313  54.8076993  14.4712753  80.5261313
  55.9706993  14.0482753  81.1191313  55.1876993  14.0562753  81.0721313
  58.0826993  13.1122753  83.3991313  58.1556993  13.9722753  83.5281313
  58.0446993  13.0372753  82.5311313  58.0876993  13.2282753  83.2901313
  50.9616993  18.5372753  84.9001313  50.7056993  19.3682753  84.8251313
  50.2976993  18.1542753  85.3171313  50.8256993  18.6032753  84.9511313
  50.8716993  28.2472753  82.8001313  50.2796993  28.8052753  82.4871313
  51.2976993  27.9782753  82.0881313  50.8476993  28.2892753  82.6491313
  56.7116993  26.0912753  80.2801313  56.1326993  25.8162753  80.8721313
  57.3356993  25.4822753  80.3051313  56.7186993  25.9612753  80.3711313
  53.9906993  13.3542753  85.3911313  53.4696993  12.7262753  85.0831313
  54.5816993  12.9172753  85.8621313  54.0016993  13.1962753  85.4151313
  52.4166993  26.9172753  80.7311313  53.0726993  26.3422753  80.7461313
  52.8056993  27.6662753  80.5101313  52.5716993  26.9422753  80.7011313
  53.2346993  25.4042753  84.2311313  53.6576993  25.0482753  83.5571313
  53.5586993  24.9822753  84.9231313  53.3446993  25.2892753  84.2341313
  56.4656993  28.2562753  83.5271313  57.3096993  28.3602753  83.3321313
  56.1686993  29.0742753  83.5951313  56.5466993  28.3922753  83.5081313
  55.4636993  29.4752753  89.2671313  55.7556993  29.4082753  90.0871313
  54.8376993  28.8702753  89.2221313  55.4146993  29.3762753  89.3821313
  50.3776993  15.6322753  91.2591313  50.3736993  16.2192753  91.9051313
  50.9716993  15.9442753  90.7021313  50.4646993  15.7652753  91.2721313
  59.8536993  26.1632753  76.5511313  59.6726993  26.7082753  77.2081313
  60.6196993  26.4532753  76.2501313  59.9396993  26.2872753  76.6041313
  51.3146993  15.2272753  80.1741313  51.2006993  14.3632753  80.2051313
  50.8396993  15.5212753  80.8441313  51.2276993  15.1432753  80.2771313
  53.4566993  27.6372753  88.3891313  52.7586993  27.1292753  88.5151313
  53.7166993  27.4322753  87.5811313  53.3916993  27.5322753  88.2881313
  60.6186993  16.4352753  78.9191313  60.1106993  15.7732753  78.6651313
  60.6706993  16.9392753  78.2091313  60.5516993  16.4122753  78.7771313
  59.2166993  15.7432753  83.3321313  59.2906993  16.3112753  82.6741313
  59.3376993  16.2352753  84.0421313  59.2446993  15.9002753  83.3401313
  54.8176993  26.4882753  90.9561313  55.6586993  26.5512753  90.7341313
  54.7806993  26.8852753  91.7321313  54.9366993  26.5562753  91.0381313
  53.8246993  11.5662753  81.6801313  54.3606993  12.2542753  81.6701313
  53.8276993  11.2922753  80.8521313  53.9036993  11.6272753  81.5561313
  56.7806993  21.9992753  85.7051313  56.9526993  21.7892753  86.5341313
  56.1256993  21.4652753  85.4891313  56.7096993  21.8892753  85.7961313
  57.5306993  21.9372753  88.2951313  57.5836993  22.7842753  88.4971313
  57.2456993  21.5672753  89.0321313  57.4966993  22.0072753  88.4331313
  54.2726993  15.3762753  83.3341313  54.5446993  14.9462753  82.6261313
  54.0966993  14.7402753  83.9051313  54.2866993  15.2192753  83.3141313
  54.0966993  22.8032753  82.8831313  54.9476993  22.7232753  82.7101313
  53.7396993  22.1212753  82.4711313  54.1696993  22.6902753  82.7961313
  52.8636993  29.5282753  84.1201313  52.1906993  29.0302753  83.8751313
  53.2666993  29.7132753  83.3691313  52.8236993  29.4822753  83.9731313
  52.4136993  16.4782753  86.4161313  53.2566993  16.6982753  86.3731313
  52.0246993  17.0512753  85.8851313  52.4806993  16.5952753  86.3311313
  56.4646993  22.8102753  81.1181313  57.1776993  23.3052753  81.2081313
  56.6866993  22.2432753  80.4921313  56.6026993  22.7992753  81.0391313
  50.6206993  24.4532753  84.4381313  49.9536993  24.9412753  84.7141313
  51.3006993  24.9982753  84.4671313  50.6226993  24.6052753  84.4831313
  50.6866993  21.1372753  79.5411313  50.5016993  20.2982753  79.6931313
  51.3456993  21.1012753  78.9711313  50.7566993  21.0082753  79.4791313
  50.8586993  25.3012753  79.1161313  51.4106993  25.8702753  79.4801313
  50.6266993  24.7862753  79.7811313  50.9056993  25.3092753  79.2681313
  55.0626993  24.3012753  86.2051313  55.5296993  24.5902753  86.8831313
  55.6346993  23.8232753  85.7511313  55.2166993  24.2732753  86.2381313
  50.6886993  23.7502753  76.7441313  51.4446993  23.3182753  76.8021313
  50.7036993  24.2822753  77.4351313  50.8026993  23.7652753  76.8551313
  51.6286993  21.9712753  84.7491313  52.0596993  21.8422753  84.0021313
  51.4236993  22.8192753  84.7231313  51.6616993  22.0772753  84.6351313
  57.9746993  15.5352753  78.3991313  57.9726993  15.4182753  77.5341313
  57.7936993  16.3832753  78.4911313  57.9476993  15.6432753  78.2851313
  55.7126993  25.4872753  83.0311313  55.8386993  26.3302753  83.2181313
  56.3806993  25.0882753  83.4271313  55.8306993  25.5532753  83.1171313
  54.3276993  18.3672753  78.0331313  54.1996993  17.9192753  78.7711313
  53.7456993  18.0252753  77.4811313  54.2226993  18.2502753  78.0611313
  54.4946993  20.1972753  84.6321313  53.7136993  20.1382753  84.2491313
  54.5666993  19.4452753  85.0691313  54.3896993  20.0782753  84.6401313
  54.9246993  19.9342753  88.1001313  54.9496993  19.2592753  87.5491313
  54.2786993  20.4302753  87.7881313  54.8336993  19.9072753  87.9731313
  59.0246993  28.7112753  87.4921313  58.7476993  28.0702753  86.9691313
  58.8166993  29.4372753  87.0541313  58.9536993  28.7242753  87.3501313
  59.5946993  17.0862753  85.7321313  60.0746993  17.7852753  85.9401313
  59.9676993  16.4392753  86.1831313  59.7206993  17.0942753  85.8291313
  56.7056993  28.8542753  79.6791313  56.5586993  28.0782753  80.0501313
  57.3946993  28.7072753  79.1641313  56.7856993  28.7172753  79.6581313
  56.3766993  12.5972753  77.6671313  56.4736993  12.4902753  78.5281313
  55.6686993  13.1032753  77.6021313  56.2866993  12.6562753  77.7851313
  58.9976993  28.3702753  78.0811313  59.6196993  28.5332753  78.6711313
  59.0336993  29.0612753  77.5491313  59.0946993  28.4962753  78.0901313
  53.4986993  20.9042753  78.9101313  53.8226993  20.1252753  78.6881313
  54.1446993  21.2722753  79.3651313  53.6416993  20.8432753  78.9441313
  50.4956993  12.5652753  79.8781313  50.6246993  11.8572753  79.3861313
  50.1286993  12.2472753  80.6031313  50.4606993  12.4132753  79.9131313
  60.1886993  20.2462753  80.3351313  60.2476993  20.8962753  80.9141313
  59.9996993  19.5502753  80.8261313  60.1696993  20.2392753  80.4931313
  54.6846993  14.7632753  76.8471313  54.1736993  14.8162753  76.1411313
  55.4686993  15.0032753  76.5511313  54.7246993  14.8062753  76.6991313
  59.4116993  22.2932753  84.7661313  58.5646993  22.0992753  84.8471313
  59.7356993  22.1282753  85.5591313  59.3336993  22.2402753  84.8951313
  56.1636993  29.0232753  75.6521313  56.6026993  28.3262753  75.9401313
  56.3706993  29.6472753  76.2251313  56.2596993  29.0122753  75.7791313
  53.2596993  21.9862753  87.0821313  53.9816993  22.4742753  87.0451313
  52.9896993  21.9562753  86.2531313  53.3266993  22.0542753  86.9541313
  56.4896993  17.1572753  83.8171313  57.3356993  16.9672753  83.9151313
  56.1196993  16.3802753  83.6791313  56.5596993  17.0142753  83.8111313
  51.3106993  18.4952753  80.4721313  51.7996993  18.2032753  81.1331313
  51.4396993  17.9022753  79.8451313  51.4016993  18.3642753  80.4771313
  55.8356993  19.9292753  75.9581313  55.2256993  19.5242753  76.4321313
  55.4496993  20.0472753  75.1851313  55.6886993  19.8862753  75.9141313
  52.6546993  23.0382753  91.3601313  52.2336993  22.5202753  90.7991313
  52.3026993  23.8242753  91.2171313  52.5406993  23.0782753  91.2561313
  57.2906993  18.3902753  78.6681313  57.5626993  19.2162753  78.7351313
  56.4276993  18.4652753  78.5721313  57.2036993  18.5232753  78.6631313
  50.7706993  14.3602753  85.2041313  50.8146993  14.7042753  84.4031313
  51.5256993  14.5972753  85.5711313  50.8886993  14.4462753  85.1401313
  57.3936993  24.8492753  87.9781313  57.0956993  25.4412753  88.5451313
  57.4486993  25.2912753  87.2291313  57.3576993  25.0022753  87.9511313
  55.3726993  23.7992753  91.3761313  54.5666993  23.5092753  91.5431313
  55.2836993  24.6672753  91.3821313  55.2406993  23.8842753  91.4011313
  59.9096993  21.2722753  87.4691313  60.3856993  21.6462753  88.0971313
  59.0866993  21.4062753  87.7281313  59.8586993  21.3472753  87.6001313
  56.6196993  16.8752753  90.2101313  56.7806993  16.1312753  90.6371313
  56.5746993  16.6262753  89.3751313  56.6366993  16.7282753  90.1501313
  59.1736993  28.6652753  82.6971313  59.7196993  29.3442753  82.7511313
  58.8236993  28.7472753  81.9021313  59.2026993  28.7782753  82.5871313
  58.3716993  12.6832753  90.0901313  59.0766993  13.0032753  89.6881313
  58.6126993  11.8762753  90.3171313  58.5106993  12.6112753  90.0641313
  57.3566993  26.8932753  86.0861313  56.7326993  27.4752753  85.9041313
  57.6046993  26.6072753  85.3001313  57.3006993  26.9372753  85.9431313
  58.9506993  21.6692753  76.0011313  58.1456993  21.4922753  75.7161313
  58.9176993  22.5202753  76.1931313  58.8266993  21.7682753  75.9881313
  54.8806993  17.7362753  86.1511313  55.3206993  17.6332753  85.4051313
  55.4256993  17.4232753  86.7561313  55.0256993  17.6752753  86.1301313
  60.0096993  28.5422753  91.9661313  60.4876993  27.9422753  91.5501313
  59.6586993  28.0992753  92.6311313  60.0286993  28.3882753  92.0031313
  58.4276993  12.7212753  86.1981313  57.6016993  12.5722753  86.4351313
  58.3876993  12.7562753  85.3271313  58.2996993  12.7042753  86.1041313
  60.0686993  23.7612753  90.9861313  59.2736993  23.6972753  91.3371313
  60.1396993  24.6082753  90.7911313  59.9616993  23.8762753  91.0091313
  50.9926993  13.1192753  92.2331313  50.8526993  13.9142753  91.9021313
  50.2066993  12.8762753  92.5221313  50.8556993  13.2012753  92.2271313
  55.8986993  29.9682753  86.3031313  55.9096993  30.0272753  87.1731313
  55.4736993  29.2212753  86.1531313  55.8376993  29.8662753  86.4091313
  54.0566993  15.8632753  79.4581313  54.1826993  15.5342753  78.6601313
  53.2446993  15.6142753  79.6571313  53.9556993  15.7782753  79.3701313
  52.6626993  29.4662753  91.7451313  52.0086993  28.8972753  91.8431313
  52.2876993  30.2392753  91.8961313  52.5106993  29.4962753  91.7821313
  54.0336993  17.8742753  89.8741313  54.4086993  18.4932753  89.3871313
  54.7076993  17.4002753  90.1591313  54.1886993  17.8962753  89.8441313
  51.8086993  16.3222753  89.1491313  51.8856993  16.1532753  88.2961313
  52.5546993  16.7282753  89.3461313  51.9296993  16.3572753  89.0521313
  54.3626993  13.7322753  91.5601313  54.2816993  12.8882753  91.7661313
  54.0486993  13.7762753  90.7471313  54.3046993  13.6142753  91.4701313
  51.2056993  21.5482753  89.3731313  51.5256993  21.7672753  88.5921313
  51.1056993  20.6832753  89.3181313  51.2376993  21.4532753  89.2501313
  52.6616993  17.4842753  75.9911313  51.9896993  17.4982753  76.5471313
  52.7566993  16.6362753  75.8071313  52.5766993  17.3612753  76.0461313
  56.6496993  26.1892753  77.1051313  57.0906993  26.2692753  77.8531313
  55.8446993  25.9732753  77.3631313  56.5956993  26.1692753  77.2541313
  55.9686993  20.8402753  90.7581313  55.5726993  21.6142753  90.8331313
  55.5626993  20.4672753  90.0821313  55.8506993  20.8992753  90.6691313
  53.9786993  25.2592753  77.7061313  53.7346993  24.9522753  78.4861313
  53.9456993  24.5562753  77.1901313  53.9376993  25.1102753  77.7451313
  56.7976993  23.5042753  76.4491313  55.9796993  23.2362753  76.5891313
  56.7696993  24.3562753  76.6341313  56.6726993  23.5912753  76.4971313
  56.3976993  13.8172753  88.2081313  55.5336993  13.9012753  88.2881313
  56.6176993  13.3032753  88.8771313  56.3026993  13.7542753  88.3191313
  58.0036993  18.8942753  91.7861313  57.6816993  18.3182753  91.2161313
  57.6446993  19.6492753  91.5401313  57.9036993  18.9202753  91.6661313
  58.7996993  12.1462753  76.4131313  58.8776993  12.3932753  75.5801313
  58.0566993  12.5232753  76.6711313  58.7016993  12.2382753  76.3281313
  53.6176993  13.9002753  88.8561313  53.2746993  13.1332753  88.6221313
  52.9226993  14.4242753  88.9201313  53.4646993  13.8642753  88.8311313
  52.2706993  17.2142753  82.8121313  51.9026993  17.5162753  83.5431313
  52.8046993  16.5852753  83.0961313  52.2946993  17.1662753  82.9621313
  51.9586993  25.6222753  90.3231313  51.3846993  26.0382753  90.8321313
  52.6916993  26.0872753  90.4181313  51.9826993  25.7522753  90.4121313
  53.7446993  28.8892753  79.0981313  53.5996993  29.0452753  78.2521313
  54.6106993  28.9682753  79.1761313  53.8516993  28.9242753  78.9851313
  57.9116993  21.2862753  78.8261313  58.0116993  21.4252753  77.9711313
  58.7296993  21.2262753  79.1221313  58.0466993  21.2972753  78.7431313
  57.0506993  14.2612753  91.9421313  57.2846993  13.6852753  91.3291313
  56.2086993  14.0802753  92.0831313  56.9606993  14.1492753  91.8721313
  54.4316993  27.7042753  85.5751313  54.3526993  26.8942753  85.2591313
  53.9876993  28.1912753  85.0031313  54.3546993  27.6562753  85.4441313
  60.0326993  23.8232753  78.0581313  60.7496993  23.4762753  77.7021313
  59.9986993  24.6232753  77.7101313  60.1336993  23.8902753  77.9541313
  52.0036993  29.9482753  89.1561313  52.4966993  29.8922753  89.8741313
  52.1916993  29.2152753  88.7211313  52.1046993  29.8312753  89.1981313
  51.1196993  23.5202753  62.4238903  50.6786993  23.6382753  63.1668903
  50.8366993  22.7452753  62.1388903  51.0126993  23.4232753  62.4918903
  50.8626993  17.3122753  58.9308903  50.0846993  17.4742753  58.5708903
  50.9016993  16.4412753  58.9528903  50.7536993  17.2072753  58.8808903
  54.0016993  22.5752753  57.6028903  53.6096993  22.2042753  56.9168903
  53.9216993  21.9772753  58.2318903  53.9316993  22.4322753  57.5938903
  53.6286993  24.2162753  61.5028903  54.2366993  24.0462753  62.1058903
  52.8776993  24.0762753  61.9238903  53.6076993  24.1702753  61.6538903
  57.9106993  13.5512753  61.4518903  57.8406993  14.2282753  60.9058903
  58.6516993  13.1632753  61.2028903  58.0096993  13.5942753  61.3338903
  52.5196993  27.3072753  57.5798903  52.9866993  27.3912753  56.8478903
  52.9746993  26.7292753  58.0488903  52.6556993  27.2342753  57.5408903
  51.0596993  26.2552753  68.6788903  51.1886993  25.9752753  69.4948903
  50.4496993  25.7142753  68.3698903  50.9886993  26.1342753  68.7538903
  57.6336993  23.7802753  73.7458903  57.3976993  23.7772753  74.5858903
  56.8856993  23.6322753  73.3218903  57.4876993  23.7572753  73.8068903
  52.5056993  20.7762753  62.8808903  52.0436993  20.3842753  62.2538903
  53.2056993  20.2632753  62.9728903  52.5406993  20.6432753  62.8018903
  57.0136993  16.3862753  68.2278903  57.6916993  16.4042753  67.6788903
  56.9686993  15.5502753  68.4728903  57.1066993  16.2652753  68.1828903
  57.6156993  26.9722753  71.0088903  57.7536993  27.7322753  70.6018903
  58.4066993  26.6072753  71.0358903  57.7526993  27.0312753  70.9528903
  54.5066993  18.8762753  62.9038903  55.3236993  18.6892753  63.1468903
  54.0296993  18.2622753  63.2998903  54.5566993  18.7582753  62.9988903
  58.7106993  24.8572753  65.5138903  59.0586993  24.0582753  65.5438903
  59.3756993  25.3612753  65.2588903  58.8606993  24.8132753  65.4808903
  58.7676993  24.3062753  61.7248903  59.0986993  23.6622753  62.2108903
  59.0076993  24.0952753  60.9138903  58.8516993  24.1802753  61.6768903
  60.7356993  18.4372753  73.0638903  59.8876993  18.3382753  72.8858903
  60.7646993  19.1822753  73.5178903  60.6146993  18.5332753  73.1048903
  55.1036993  13.9702753  62.1698903  54.8076993  14.4712753  61.5198903
  55.9706993  14.0482753  62.1128903  55.1876993  14.0562753  62.0658903
  58.0826993  13.1122753  64.3928903  58.1556993  13.9722753  64.5218903
  58.0446993  13.0372753  63.5248903  58.0876993  13.2282753  64.2838903
  50.9616993  18.5372753  65.8938903  50.7056993  19.3682753  65.8188903
  50.2976993  18.1542753  66.3108903  50.8256993  18.6032753  65.9448903
  50.8716993  28.2472753  63.7938903  50.2796993  28.8052753  63.4808903
  51.2976993  27.9782753  63.0818903  50.8476993  28.2892753  63.6428903
  56.7116993  26.0912753  61.2738903  56.1326993  25.8162753  61.8658903
  57.3356993  25.4822753  61.2988903  56.7186993  25.9612753  61.3648903
  53.9906993  13.3542753  66.3848903  53.4696993  12.7262753  66.0768903
  54.5816993  12.9172753  66.8558903  54.0016993  13.1962753  66.4088903
  57.2966993  15.4872753  75.6828903  57.4136993  15.0332753  74.9468903
  57.5846993  16.2852753  75.4798903  57.3566993  15.5382753  75.5438903
  52.4166993  26.9172753  61.7248903  53.0726993  26.3422753  61.7398903
  52.8056993  27.6662753  61.5038903  52.5716993  26.9422753  61.6948903
  53.0296993  15.0842753  74.6668903  52.2516993  14.6942753  74.5948903
  53.5206993  14.6722753  74.0758903  52.9866993  14.9652753  74.5688903
  53.2346993  25.4042753  65.2248903  53.6576993  25.0482753  64.5508903
  53.5586993  24.9822753  65.9168903  53.3446993  25.2892753  65.2278903
  56.4656993  28.2562753  64.5208903  57.3096993  28.3602753  64.3258903
  56.1686993  29.0742753  64.5888903  56.5466993  28.3922753  64.5018903
  59.6786993  12.7272753  73.8348903  59.8566993  11.9182753  73.5598903
  59.5356993  13.1682753  73.0958903  59.6836993  12.6732753  73.6848903
  55.4636993  29.4752753  70.2608903  55.7556993  29.4082753  71.0808903
  54.8376993  28.8702753  70.2158903  55.4146993  29.3762753  70.3758903
  50.3776993  15.6322753  72.2528903  50.3736993  16.2192753  72.8988903
  50.9716993  15.9442753  71.6958903  50.4646993  15.7652753  72.2658903
  59.8536993  26.1632753  57.5448903  59.6726993  26.7082753  58.2018903
  60.6196993  26.4532753  57.2438903  59.9396993  26.2872753  57.5978903
  51.3146993  15.2272753  61.1678903  51.2006993  14.3632753  61.1988903
  50.8396993  15.5212753  61.8378903  51.2276993  15.1432753  61.2708903
  53.4566993  27.6372753  69.3828903  52.7586993  27.1292753  69.5088903
  53.7166993  27.4322753  68.5748903  53.3916993  27.5322753  69.2818903
  60.6186993  16.4352753  59.9128903  60.1106993  15.7732753  59.6588903
  60.6706993  16.9392753  59.2028903  60.5516993  16.4122753  59.7708903
  59.2166993  15.7432753  64.3258903  59.2906993  16.3112753  63.6678903
  59.3376993  16.2352753  65.0358903  59.2446993  15.9002753  64.3338903
  54.8176993  26.4882753  71.9498903  55.6586993  26.5512753  71.7278903
  54.7806993  26.8852753  72.7258903  54.9366993  26.5562753  72.0318903
  53.8246993  11.5662753  62.6738903  54.3606993  12.2542753  62.6638903
  53.8276993  11.2922753  61.8458903  53.9036993  11.6272753  62.5498903
  56.7806993  21.9992753  66.6988903  56.9526993  21.7892753  67.5278903
  56.1256993  21.4652753  66.4828903  56.7096993  21.8892753  66.7898903
  57.5306993  21.9372753  69.2888903  57.5836993  22.7842753  69.4908903
  57.2456993  21.5672753  70.0258903  57.4966993  22.0072753  69.4268903
  50.3516993  26.3082753  75.4998903  51.1076993  26.6572753  75.7578903
  50.5286993  25.4552753  75.4428903  50.4896993  26.2332753  75.5298903
  54.2726993  15.3762753  64.3278903  54.5446993  14.9462753  63.6198903
  54.0966993  14.7402753  64.8988903  54.2866993  15.2192753  64.3078903
  54.0966993  22.8032753  63.8768903  54.9476993  22.7232753  63.7038903
  53.7396993  22.1212753  63.4648903  54.1696993  22.6902753  63.7898903
  52.8636993  29.5282753  65.1138903  52.1906993  29.0302753  64.8688903
  53.2666993  29.7132753  64.3628903  52.8236993  29.4822753  64.9668903
  52.4136993  16.4782753  67.4098903  53.2566993  16.6982753  67.3668903
  52.0246993  17.0512753  66.8788903  52.4806993  16.5952753  67.3248903
  56.4646993  22.8102753  62.1118903  57.1776993  23.3052753  62.2018903
  56.6866993  22.2432753  61.4858903  56.6026993  22.7992753  62.0328903
  50.6206993  24.4532753  65.4318903  49.9536993  24.9412753  65.7078903
  51.3006993  24.9982753  65.4608903  50.6226993  24.6052753  65.4768903
  58.2676993  18.1632753  75.5278903  57.7836993  18.7402753  75.9698903
  58.2396993  18.4582753  74.7068903  58.1916993  18.2922753  75.4718903
  50.6866993  21.1372753  60.5348903  50.5016993  20.2982753  60.6868903
  51.3456993  21.1012753  59.9648903  50.7566993  21.0082753  60.4728903
  50.8586993  25.3012753  60.1098903  51.4106993  25.8702753  60.4738903
  50.6266993  24.7862753  60.7748903  50.9056993  25.3092753  60.2618903
  55.0626993  24.3012753  67.1988903  55.5296993  24.5902753  67.8768903
  55.6346993  23.8232753  66.7448903  55.2166993  24.2732753  67.2318903
  50.6886993  23.7502753  57.7378903  51.4446993  23.3182753  57.7958903
  50.7036993  24.2822753  58.4288903  50.8026993  23.7652753  57.8488903
  51.6286993  21.9712753  65.7428903  52.0596993  21.8422753  64.9958903
  51.4236993  22.8192753  65.7168903  51.6616993  22.0772753  65.6288903
  57.9746993  15.5352753  59.3928903  57.9726993  15.4182753  58.5278903
  57.7936993  16.3832753  59.4848903  57.9476993  15.6432753  59.2788903
  55.7126993  25.4872753  64.0248903  55.8386993  26.3302753  64.2118903
  56.3806993  25.0882753  64.4208903  55.8306993  25.5532753  64.1108903
  53.8426993  18.9702753  73.8868903  53.3066993  18.4642753  74.3548903
  53.8626993  18.5802753  73.1068903  53.7656993  18.8372753  73.8408903
  54.3276993  18.3672753  59.0268903  54.1996993  17.9192753  59.7648903
  53.7456993  18.0252753  58.4748903  54.2226993  18.2502753  59.0548903
  54.4946993  20.1972753  65.6258903  53.7136993  20.1382753  65.2428903
  54.5666993  19.4452753  66.0628903  54.3896993  20.0782753  65.6338903
  54.9246993  19.9342753  69.0938903  54.9496993  19.2592753  68.5428903
  54.2786993  20.4302753  68.7818903  54.8336993  19.9072753  68.9668903
  59.0246993  28.7112753  68.4858903  58.7476993  28.0702753  67.9628903
  58.8166993  29.4372753  68.0478903  58.9536993  28.7242753  68.3438903
  52.7236993  21.2892753  74.6528903  52.6866993  21.7902753  73.9388903
  53.0546993  20.5372753  74.3578903  52.7666993  21.2512753  74.5038903
  58.6226993  26.3392753  74.0878903  58.9766993  26.1612753  74.8648903
  58.1866993  25.6102753  73.8888903  58.6106993  26.2052753  74.1738903
  59.5946993  17.0862753  66.7258903  60.0746993  17.7852753  66.9338903
  59.9676993  16.4392753  67.1768903  59.7206993  17.0942753  66.8228903
  56.7056993  28.8542753  60.6728903  56.5586993  28.0782753  61.0438903
  57.3946993  28.7072753  60.1578903  56.7856993  28.7172753  60.6518903
  56.3766993  12.5972753  58.6608903  56.4736993  12.4902753  59.5218903
  55.6686993  13.1032753  58.5958903  56.2866993  12.6562753  58.7788903
  58.9976993  28.3702753  59.0748903  59.6196993  28.5332753  59.6648903
  59.0336993  29.0612753  58.5428903  59.0946993  28.4962753  59.0838903
  53.4986993  20.9042753  59.9038903  53.8226993  20.1252753  59.6818903
  54.1446993  21.2722753  60.3588903  53.6416993  20.8432753  59.9378903
  50.4956993  12.5652753  60.8718903  50.6246993  11.8572753  60.3798903
  50.1286993  12.2472753  61.5968903  50.4606993  12.4132753  60.9068903
  60.1886993  20.2462753  61.3288903  60.2476993  20.8962753  61.9078903
  59.9996993  19.5502753  61.8198903  60.1696993  20.2392753  61.4868903
  54.6846993  14.7632753  57.8408903  54.1736993  14.8162753  57.1348903
  55.4686993  15.0032753  57.5448903  54.7246993  14.8062753  57.6928903
  59.4116993  22.2932753  65.7598903  58.5646993  22.0992753  65.8408903
  59.7356993  22.1282753  66.5528903  59.3336993  22.2402753  65.8888903
  56.1636993  29.0232753  56.6458903  56.6026993  28.3262753  56.9338903
  56.3706993  29.6472753  57.2188903  56.2596993  29.0122753  56.7728903
  53.2596993  21.9862753  68.0758903  53.9816993  22.4742753  68.0388903
  52.9896993  21.9562753  67.2468903  53.3266993  22.0542753  67.9478903
  56.4896993  17.1572753  64.8108903  57.3356993  16.9672753  64.9088903
  56.1196993  16.3802753  64.6728903  56.5596993  17.0142753  64.8048903
  51.3106993  18.4952753  61.4658903  51.7996993  18.2032753  62.1268903
  51.4396993  17.9022753  60.8388903  51.4016993  18.3642753  61.4708903
  55.8356993  19.9292753  56.9518903  55.2256993  19.5242753  57.4258903
  55.4496993  20.0472753  56.1788903  55.6886993  19.8862753  56.9078903
  52.6546993  23.0382753  72.3538903  52.2336993  22.5202753  71.7928903
  52.3026993  23.8242753  72.2108903  52.5406993  23.0782753  72.2498903
  57.2906993  18.3902753  59.6618903  57.5626993  19.2162753  59.7288903
  56.4276993  18.4652753  59.5658903  57.2036993  18.5232753  59.6568903
  50.7706993  14.3602753  66.1978903  50.8146993  14.7042753  65.3968903
  51.5256993  14.5972753  66.5648903  50.8886993  14.4462753  66.1338903
  57.3936993  24.8492753  68.9718903  57.0956993  25.4412753  69.5388903
  57.4486993  25.2912753  68.2228903  57.3576993  25.0022753  68.9448903
  55.3726993  23.7992753  72.3698903  54.5666993  23.5092753  72.5368903
  55.2836993  24.6672753  72.3758903  55.2406993  23.8842753  72.3948903
  59.9096993  21.2722753  68.4628903  60.3856993  21.6462753  69.0908903
  59.0866993  21.4062753  68.7218903  59.8586993  21.3472753  68.5938903
  56.6196993  16.8752753  71.2038903  56.7806993  16.1312753  71.6308903
  56.5746993  16.6262753  70.3688903  56.6366993  16.7282753  71.1438903
  59.1736993  28.6652753  63.6908903  59.7196993  29.3442753  63.7448903
  58.8236993  28.7472753  62.8958903  59.2026993  28.7782753  63.5808903
  58.3716993  12.6832753  71.0838903  59.0766993  13.0032753  70.6818903
  58.6126993  11.8762753  71.3108903  58.5106993  12.6112753  71.0578903
  57.3566993  26.8932753  67.0798903  56.7326993  27.4752753  66.8978903
  57.6046993  26.6072753  66.2938903  57.3006993  26.9372753  66.9368903
  58.9506993  21.6692753  56.9948903  58.1456993  21.4922753  56.7098903
  58.9176993  22.5202753  57.1868903  58.8266993  21.7682753  56.9818903
  54.8806993  17.7362753  67.1448903  55.3206993  17.6332753  66.3988903
  55.4256993  17.4232753  67.7498903  55.0256993  17.6752753  67.1238903
  60.0096993  28.5422753  72.9598903  60.4876993  27.9422753  72.5438903
  59.6586993  28.0992753  73.6248903  60.0286993  28.3882753  72.9968903
  58.4276993  12.7212753  67.1918903  57.6016993  12.5722753  67.4288903
  58.3876993  12.7562753  66.3208903  58.2996993  12.7042753  67.0978903
  60.0686993  23.7612753  71.9798903  59.2736993  23.6972753  72.3308903
  60.1396993  24.6082753  71.7848903  59.9616993  23.8762753  72.0028903
  50.9926993  13.1192753  73.2268903  50.8526993  13.9142753  72.8958903
  50.2066993  12.8762753  73.5158903  50.8556993  13.2012753  73.2208903
  55.8986993  29.9682753  67.2968903  55.9096993  30.0272753  68.1668903
  55.4736993  29.2212753  67.1468903  55.8376993  29.8662753  67.4028903
  54.0566993  15.8632753  60.4518903  54.1826993  15.5342753  59.6538903
  53.2446993  15.6142753  60.6508903  53.9556993  15.7782753  60.3638903
  52.6626993  29.4662753  72.7388903  52.0086993  28.8972753  72.8368903
  52.2876993  30.2392753  72.8898903  52.5106993  29.4962753  72.7758903
  54.0336993  17.8742753  70.8678903  54.4086993  18.4932753  70.3808903
  54.7076993  17.4002753  71.1528903  54.1886993  17.8962753  70.8378903
  51.8086993  16.3222753  70.1428903  51.8856993  16.1532753  69.2898903
  52.5546993  16.7282753  70.3398903  51.9296993  16.3572753  70.0458903
  54.3626993  13.7322753  72.5538903  54.2816993  12.8882753  72.7598903
  54.0486993  13.7762753  71.7408903  54.3046993  13.6142753  72.4638903
  51.2056993  21.5482753  70.3668903  51.5256993  21.7672753  69.5858903
  51.1056993  20.6832753  70.3118903  51.2376993  21.4532753  70.2438903
  52.6616993  17.4842753  56.9848903  51.9896993  17.4982753  57.5408903
  52.7566993  16.6362753  56.8008903  52.5766993  17.3612753  57.0398903
  56.6496993  26.1892753  58.0988903  57.0906993  26.2692753  58.8468903
  55.8446993  25.9732753  58.3568903  56.5956993  26.1692753  58.2478903
  55.9686993  20.8402753  71.7518903  55.5726993  21.6142753  71.8268903
  55.5626993  20.4672753  71.0758903  55.8506993  20.8992753  71.6628903
  53.9786993  25.2592753  58.6998903  53.7346993  24.9522753  59.4798903
  53.9456993  24.5562753  58.1838903  53.9376993  25.1102753  58.7388903
  56.7976993  23.5042753  57.4428903  55.9796993  23.2362753  57.5828903
  56.7696993  24.3562753  57.6278903  56.6726993  23.5912753  57.4908903
  56.3976993  13.8172753  69.2018903  55.5336993  13.9012753  69.2818903
  56.6176993  13.3032753  69.8708903  56.3026993  13.7542753  69.3128903
  58.0036993  18.8942753  72.7798903  57.6816993  18.3182753  72.2098903
  57.6446993  19.6492753  72.5338903  57.9036993  18.9202753  72.6598903
  58.7996993  12.1462753  57.4068903  58.8776993  12.3932753  56.5738903
  58.0566993  12.5232753  57.6648903  58.7016993  12.2382753  57.3218903
  56.4386993  29.2502753  73.0278903  56.4796993  29.3762753  73.8908903
  57.0896993  28.6902753  72.8718903  56.5406993  29.1862753  73.1328903
  53.6176993  13.9002753  69.8498903  53.2746993  13.1332753  69.6158903
  52.9226993  14.4242753  69.9138903  53.4646993  13.8642753  69.8248903
  54.0316993  27.6332753  74.3878903  54.6266993  28.0642753  74.8598903
  53.6676993  28.2572753  73.8988903  54.0656993  27.7892753  74.3848903
  52.2706993  17.2142753  63.8058903  51.9026993  17.5162753  64.5368903
  52.8046993  16.5852753  64.0898903  52.2946993  17.1662753  63.9558903
  51.9586993  25.6222753  71.3168903  51.3846993  26.0382753  71.8258903
  52.6916993  26.0872753  71.4118903  51.9826993  25.7522753  71.4058903
  53.7446993  28.8892753  60.0918903  53.5996993  29.0452753  59.2458903
  54.6106993  28.9682753  60.1698903  53.8516993  28.9242753  59.9788903
  57.9116993  21.2862753  59.8198903  58.0116993  21.4252753  58.9648903
  58.7296993  21.2262753  60.1158903  58.0466993  21.2972753  59.7368903
  57.0506993  14.2612753  72.9358903  57.2846993  13.6852753  72.3228903
  56.2086993  14.0802753  73.0768903  56.9606993  14.1492753  72.8658903
  54.4316993  27.7042753  66.5688903  54.3526993  26.8942753  66.2528903
  53.9876993  28.1912753  65.9968903  54.3546993  27.6562753  66.4378903
  60.0326993  23.8232753  59.0518903  60.7496993  23.4762753  58.6958903
  59.9986993  24.6232753  58.7038903  60.1336993  23.8902753  58.9478903
  52.0036993  29.9482753  70.1498903  52.4966993  29.8922753  70.8678903
  52.1916993  29.2152753  69.7148903  52.1046993  29.8312753  70.1918903
  51.1196993  23.5202753  43.4176493  50.6786993  23.6382753  44.1606493
  50.8366993  22.7452753  43.1326493  51.0126993  23.4232753  43.4856493
  50.8626993  17.3122753  39.9246493  50.0846993  17.4742753  39.5646493
  50.9016993  16.4412753  39.9466493  50.7536993  17.2072753  39.8746493
  54.0016993  22.5752753  38.5966493  53.6096993  22.2042753  37.9106493
  53.9216993  21.9772753  39.2256493  53.9316993  22.4322753  38.5876493
  53.6286993  24.2162753  42.4966493  54.2366993  24.0462753  43.0996493
  52.8776993  24.0762753  42.9176493  53.6076993  24.1702753  42.6476493
  57.9106993  13.5512753  42.4456493  57.8406993  14.2282753  41.8996493
  58.6516993  13.1632753  42.1966493  58.0096993  13.5942753  42.3276493
  52.5196993  27.3072753  38.5736493  52.9866993  27.3912753  37.8416493
  52.9746993  26.7292753  39.0426493  52.6556993  27.2342753  38.5346493
  51.0596993  26.2552753  49.6726493  51.1886993  25.9752753  50.4886493
  50.4496993  25.7142753  49.3636493  50.9886993  26.1342753  49.7476493
  57.6336993  23.7802753  54.7396493  57.3976993  23.7772753  55.5796493
  56.8856993  23.6322753  54.3156493  57.4876993  23.7572753  54.8006493
  52.5056993  20.7762753  43.8746493  52.0436993  20.3842753  43.2476493
  53.2056993  20.2632753  43.9666493  52.5406993  20.6432753  43.7956493
  57.0136993  16.3862753  49.2216493  57.6916993  16.4042753  48.6726493
  56.9686993  15.5502753  49.4666493  57.1066993  16.2652753  49.1766493
  57.6156993  26.9722753  52.0026493  57.7536993  27.7322753  51.5956493
  58.4066993  26.6072753  52.0296493  57.7526993  27.0312753  51.9466493
  54.5066993  18.8762753  43.8976493  55.3236993  18.6892753  44.1406493
  54.0296993  18.2622753  44.2936493  54.5566993  18.7582753  43.9926493
  58.7106993  24.8572753  46.5076493  59.0586993  24.0582753  46.5376493
  59.3756993  25.3612753  46.2526493  58.8606993  24.8132753  46.4746493
  58.7676993  24.3062753  42.7186493  59.0986993  23.6622753  43.2046493
  59.0076993  24.0952753  41.9076493  58.8516993  24.1802753  42.6706493
  60.7356993  18.4372753  54.0576493  59.8876993  18.3382753  53.8796493
  60.7646993  19.1822753  54.5116493  60.6146993  18.5332753  54.0986493
  55.1036993  13.9702753  43.1636493  54.8076993  14.4712753  42.5136493
  55.9706993  14.0482753  43.1066493  55.1876993  14.0562753  43.0596493
  58.0826993  13.1122753  45.3866493  58.1556993  13.9722753  45.5156493
  58.0446993  13.0372753  44.5186493  58.0876993  13.2282753  45.2776493
  50.9616993  18.5372753  46.8876493  50.7056993  19.3682753  46.8126493
  50.2976993  18.1542753  47.3046493  50.8256993  18.6032753  46.9386493
  50.8716993  28.2472753  44.7876493  50.2796993  28.8052753  44.4746493
  51.2976993  27.9782753  44.0756493  50.8476993  28.2892753  44.6366493
  56.7116993  26.0912753  42.2676493  56.1326993  25.8162753  42.8596493
  57.3356993  25.4822753  42.2926493  56.7186993  25.9612753  42.3586493
  53.9906993  13.3542753  47.3786493  53.4696993  12.7262753  47.0706493
  54.5816993  12.9172753  47.8496493  54.0016993  13.1962753  47.4026493
  57.2966993  15.4872753  56.6766493  57.4136993  15.0332753  55.9406493
  57.5846993  16.2852753  56.4736493  57.3566993  15.5382753  56.5376493
  52.4166993  26.9172753  42.7186493  53.0726993  26.3422753  42.7336493
  52.8056993  27.6662753  42.4976493  52.5716993  26.9422753  42.6886493
  53.0296993  15.0842753  55.6606493  52.2516993  14.6942753  55.5886493
  53.5206993  14.6722753  55.0696493  52.9866993  14.9652753  55.5626493
  53.2346993  25.4042753  46.2186493  53.6576993  25.0482753  45.5446493
  53.5586993  24.9822753  46.9106493  53.3446993  25.2892753  46.2216493
  56.4656993  28.2562753  45.5146493  57.3096993  28.3602753  45.3196493
  56.1686993  29.0742753  45.5826493  56.5466993  28.3922753  45.4956493
  59.6786993  12.7272753  54.8286493  59.8566993  11.9182753  54.5536493
  59.5356993  13.1682753  54.0896493  59.6836993  12.6732753  54.6786493
  55.4636993  29.4752753  51.2546493  55.7556993  29.4082753  52.0746493
  54.8376993  28.8702753  51.2096493  55.4146993  29.3762753  51.3696493
  50.3776993  15.6322753  53.2466493  50.3736993  16.2192753  53.8926493
  50.9716993  15.9442753  52.6896493  50.4646993  15.7652753  53.2596493
  59.8536993  26.1632753  38.5386493  59.6726993  26.7082753  39.1956493
  60.6196993  26.4532753  38.2376493  59.9396993  26.2872753  38.5916493
  51.3146993  15.2272753  42.1616493  51.2006993  14.3632753  42.1926493
  50.8396993  15.5212753  42.8316493  51.2276993  15.1432753  42.2646493
  53.4566993  27.6372753  50.3766493  52.7586993  27.1292753  50.5026493
  53.7166993  27.4322753  49.5686493  53.3916993  27.5322753  50.2756493
  60.6186993  16.4352753  40.9066493  60.1106993  15.7732753  40.6526493
  60.6706993  16.9392753  40.1966493  60.5516993  16.4122753  40.7646493
  59.2166993  15.7432753  45.3196493  59.2906993  16.3112753  44.6616493
  59.3376993  16.2352753  46.0296493  59.2446993  15.9002753  45.3276493
  54.8176993  26.4882753  52.9436493  55.6586993  26.5512753  52.7216493
  54.7806993  26.8852753  53.7196493  54.9366993  26.5562753  53.0256493
  53.8246993  11.5662753  43.6676493  54.3606993  12.2542753  43.6576493
  53.8276993  11.2922753  42.8396493  53.9036993  11.6272753  43.5436493
  56.7806993  21.9992753  47.6926493  56.9526993  21.7892753  48.5216493
  56.1256993  21.4652753  47.4766493  56.7096993  21.8892753  47.7836493
  57.5306993  21.9372753  50.2826493  57.5836993  22.7842753  50.4846493
  57.2456993  21.5672753  51.0196493  57.4966993  22.0072753  50.4206493
  50.3516993  26.3082753  56.4936493  51.1076993  26.6572753  56.7516493
  50.5286993  25.4552753  56.4366493  50.4896993  26.2332753  56.5236493
  54.2726993  15.3762753  45.3216493  54.5446993  14.9462753  44.6136493
  54.0966993  14.7402753  45.8926493  54.2866993  15.2192753  45.3016493
  54.0966993  22.8032753  44.8706493  54.9476993  22.7232753  44.6976493
  53.7396993  22.1212753  44.4586493  54.1696993  22.6902753  44.7836493
  52.8636993  29.5282753  46.1076493  52.1906993  29.0302753  45.8626493
  53.2666993  29.7132753  45.3566493  52.8236993  29.4822753  45.9606493
  52.4136993  16.4782753  48.4036493  53.2566993  16.6982753  48.3606493
  52.0246993  17.0512753  47.8726493  52.4806993  16.5952753  48.3186493
  56.4646993  22.8102753  43.1056493  57.1776993  23.3052753  43.1956493
  56.6866993  22.2432753  42.4796493  56.6026993  22.7992753  43.0266493
  50.6206993  24.4532753  46.4256493  49.9536993  24.9412753  46.7016493
  51.3006993  24.9982753  46.4546493  50.6226993  24.6052753  46.4706493
  58.2676993  18.1632753  56.5216493  57.7836993  18.7402753  56.9636493
  58.2396993  18.4582753  55.7006493  58.1916993  18.2922753  56.4656493
  50.6866993  21.1372753  41.5286493  50.5016993  20.2982753  41.6806493
  51.3456993  21.1012753  40.9586493  50.7566993  21.0082753  41.4666493
  50.8586993  25.3012753  41.1036493  51.4106993  25.8702753  41.4676493
  50.6266993  24.7862753  41.7686493  50.9056993  25.3092753  41.2556493
  55.0626993  24.3012753  48.1926493  55.5296993  24.5902753  48.8706493
  55.6346993  23.8232753  47.7386493  55.2166993  24.2732753  48.2256493
  50.6886993  23.7502753  38.7316493  51.4446993  23.3182753  38.7896493
  50.7036993  24.2822753  39.4226493  50.8026993  23.7652753  38.8426493
  51.6286993  21.9712753  46.7366493  52.0596993  21.8422753  45.9896493
  51.4236993  22.8192753  46.7106493  51.6616993  22.0772753  46.6226493
  57.9746993  15.5352753  40.3866493  57.9726993  15.4182753  39.5216493
  57.7936993  16.3832753  40.4786493  57.9476993  15.6432753  40.2726493
  55.7126993  25.4872753  45.0186493  55.8386993  26.3302753  45.2056493
  56.3806993  25.0882753  45.4146493  55.8306993  25.5532753  45.1046493
  53.8426993  18.9702753  54.8806493  53.3066993  18.4642753  55.3486493
  53.8626993  18.5802753  54.1006493  53.7656993  18.8372753  54.8346493
  54.3276993  18.3672753  40.0206493  54.1996993  17.9192753  40.7586493
  53.7456993  18.0252753  39.4686493  54.2226993  18.2502753  40.0486493
  54.4946993  20.1972753  46.6196493  53.7136993  20.1382753  46.2366493
  54.5666993  19.4452753  47.0566493  54.3896993  20.0782753  46.6276493
  54.9246993  19.9342753  50.0876493  54.9496993  19.2592753  49.5366493
  54.2786993  20.4302753  49.7756493  54.8336993  19.9072753  49.9606493
  59.0246993  28.7112753  49.4796493  58.7476993  28.0702753  48.9566493
  58.8166993  29.4372753  49.0416493  58.9536993  28.7242753  49.3376493
  52.7236993  21.2892753  55.6466493  52.6866993  21.7902753  54.9326493
  53.0546993  20.5372753  55.3516493  52.7666993  21.2512753  55.4976493
  58.6226993  26.3392753  55.0816493  58.9766993  26.1612753  55.8586493
  58.1866993  25.6102753  54.8826493  58.6106993  26.2052753  55.1676493
  59.5946993  17.0862753  47.7196493  60.0746993  17.7852753  47.9276493
  59.9676993  16.4392753  48.1706493  59.7206993  17.0942753  47.8166493
  56.7056993  28.8542753  41.6666493  56.5586993  28.0782753  42.0376493
  57.3946993  28.7072753  41.1516493  56.7856993  28.7172753  41.6456493
  56.3766993  12.5972753  39.6546493  56.4736993  12.4902753  40.5156493
  55.6686993  13.1032753  39.5896493  56.2866993  12.6562753  39.7726493
  58.9976993  28.3702753  40.0686493  59.6196993  28.5332753  40.6586493
  59.0336993  29.0612753  39.5366493  59.0946993  28.4962753  40.0776493
  53.4986993  20.9042753  40.8976493  53.8226993  20.1252753  40.6756493
  54.1446993  21.2722753  41.3526493  53.6416993  20.8432753  40.9316493
  50.4956993  12.5652753  41.8656493  50.6246993  11.8572753  41.3736493
  50.1286993  12.2472753  42.5906493  50.4606993  12.4132753  41.9006493
  60.1886993  20.2462753  42.3226493  60.2476993  20.8962753  42.9016493
  59.9996993  19.5502753  42.8136493  60.1696993  20.2392753  42.4806493
  54.6846993  14.7632753  38.8346493  54.1736993  14.8162753  38.1286493
  55.4686993  15.0032753  38.5386493  54.7246993  14.8062753  38.6866493
  59.4116993  22.2932753  46.7536493  58.5646993  22.0992753  46.8346493
  59.7356993  22.1282753  47.5466493  59.3336993  22.2402753  46.8826493
  56.1636993  29.0232753  37.6396493  56.6026993  28.3262753  37.9276493
  56.3706993  29.6472753  38.2126493  56.2596993  29.0122753  37.7666493
  53.2596993  21.9862753  49.0696493  53.9816993  22.4742753  49.0326493
  52.9896993  21.9562753  48.2406493  53.3266993  22.0542753  48.9416493
  56.4896993  17.1572753  45.8046493  57.3356993  16.9672753  45.9026493
  56.1196993  16.3802753  45.6666493  56.5596993  17.0142753  45.7986493
  51.3106993  18.4952753  42.4596493  51.7996993  18.2032753  43.1206493
  51.4396993  17.9022753  41.8326493  51.4016993  18.3642753  42.4646493
  55.8356993  19.9292753  37.9456493  55.2256993  19.5242753  38.4196493
  55.4496993  20.0472753  37.1726493  55.6886993  19.8862753  37.9016493
  52.6546993  23.0382753  53.3476493  52.2336993  22.5202753  52.7866493
  52.3026993  23.8242753  53.2046493  52.5406993  23.0782753  53.2436493
  57.2906993  18.3902753  40.6556493  57.5626993  19.2162753  40.7226493
  56.4276993  18.4652753  40.5596493  57.2036993  18.5232753  40.6506493
  50.7706993  14.3602753  47.1916493  50.8146993  14.7042753  46.3906493
  51.5256993  14.5972753  47.5586493  50.8886993  14.4462753  47.1276493
  57.3936993  24.8492753  49.9656493  57.0956993  25.4412753  50.5326493
  57.4486993  25.2912753  49.2166493  57.3576993  25.0022753  49.9386493
  55.3726993  23.7992753  53.3636493  54.5666993  23.5092753  53.5306493
  55.2836993  24.6672753  53.3696493  55.2406993  23.8842753  53.3886493
  59.9096993  21.2722753  49.4566493  60.3856993  21.6462753  50.0846493
  59.0866993  21.4062753  49.7156493  59.8586993  21.3472753  49.5876493
  56.6196993  16.8752753  52.1976493  56.7806993  16.1312753  52.6246493
  56.5746993  16.6262753  51.3626493  56.6366993  16.7282753  52.1376493
  59.1736993  28.6652753  44.6846493  59.7196993  29.3442753  44.7386493
  58.8236993  28.7472753  43.8896493  59.2026993  28.7782753  44.5746493
  58.3716993  12.6832753  52.0776493  59.0766993  13.0032753  51.6756493
  58.6126993  11.8762753  52.3046493  58.5106993  12.6112753  52.0516493
  57.3566993  26.8932753  48.0736493  56.7326993  27.4752753  47.8916493
  57.6046993  26.6072753  47.2876493  57.3006993  26.9372753  47.9306493
  58.9506993  21.6692753  37.9886493  58.1456993  21.4922753  37.7036493
  58.9176993  22.5202753  38.1806493  58.8266993  21.7682753  37.9756493
  54.8806993  17.7362753  48.1386493  55.3206993  17.6332753  47.3926493
  55.4256993  17.4232753  48.7436493  55.0256993  17.6752753  48.1176493
  60.0096993  28.5422753  53.9536493  60.4876993  27.9422753  53.5376493
  59.6586993  28.0992753  54.6186493  60.0286993  28.3882753  53.9906493
  58.4276993  12.7212753  48.1856493  57.6016993  12.5722753  48.4226493
  58.3876993  12.7562753  47.3146493  58.2996993  12.7042753  48.0916493
  60.0686993  23.7612753  52.9736493  59.2736993  23.6972753  53.3246493
  60.1396993  24.6082753  52.7786493  59.9616993  23.8762753  52.9966493
  50.9926993  13.1192753  54.2206493  50.8526993  13.9142753  53.8896493
  50.2066993  12.8762753  54.5096493  50.8556993  13.2012753  54.2146493
  55.8986993  29.9682753  48.2906493  55.9096993  30.0272753  49.1606493
  55.4736993  29.2212753  48.1406493  55.8376993  29.8662753  48.3966493
  54.0566993  15.8632753  41.4456493  54.1826993  15.5342753  40.6476493
  53.2446993  15.6142753  41.6446493  53.9556993  15.7782753  41.3576493
  52.6626993  29.4662753  53.7326493  52.0086993  28.8972753  53.8306493
  52.2876993  30.2392753  53.8836493  52.5106993  29.4962753  53.7696493
  54.0336993  17.8742753  51.8616493  54.4086993  18.4932753  51.3746493
  54.7076993  17.4002753  52.1466493  54.1886993  17.8962753  51.8316493
  51.8086993  16.3222753  51.1366493  51.8856993  16.1532753  50.2836493
  52.5546993  16.7282753  51.3336493  51.9296993  16.3572753  51.0396493
  54.3626993  13.7322753  53.5476493  54.2816993  12.8882753  53.7536493
  54.0486993  13.7762753  52.7346493  54.3046993  13.6142753  53.4576493
  51.2056993  21.5482753  51.3606493  51.5256993  21.7672753  50.5796493
  51.1056993  20.6832753  51.3056493  51.2376993  21.4532753  51.2376493
  52.6616993  17.4842753  37.9786493  51.9896993  17.4982753  38.5346493
  52.7566993  16.6362753  37.7946493  52.5766993  17.3612753  38.0336493
  56.6496993  26.1892753  39.0926493  57.0906993  26.2692753  39.8406493
  55.8446993  25.9732753  39.3506493  56.5956993  26.1692753  39.2416493
  55.9686993  20.8402753  52.7456493  55.5726993  21.6142753  52.8206493
  55.5626993  20.4672753  52.0696493  55.8506993  20.8992753  52.6566493
  53.9786993  25.2592753  39.6936493  53.7346993  24.9522753  40.4736493
  53.9456993  24.5562753  39.1776493  53.9376993  25.1102753  39.7326493
  56.7976993  23.5042753  38.4366493  55.9796993  23.2362753  38.5766493
  56.7696993  24.3562753  38.6216493  56.6726993  23.5912753  38.4846493
  56.3976993  13.8172753  50.1956493  55.5336993  13.9012753  50.2756493
  56.6176993  13.3032753  50.8646493  56.3026993  13.7542753  50.3066493
  58.0036993  18.8942753  53.7736493  57.6816993  18.3182753  53.2036493
  57.6446993  19.6492753  53.5276493  57.9036993  18.9202753  53.6536493
  58.7996993  12.1462753  38.4006493  58.8776993  12.3932753  37.5676493
  58.0566993  12.5232753  38.6586493  58.7016993  12.2382753  38.3156493
  56.4386993  29.2502753  54.0216493  56.4796993  29.3762753  54.8846493
  57.0896993  28.6902753  53.8656493  56.5406993  29.1862753  54.1266493
  53.6176993  13.9002753  50.8436493  53.2746993  13.1332753  50.6096493
  52.9226993  14.4242753  50.9076493  53.4646993  13.8642753  50.8186493
  54.0316993  27.6332753  55.3816493  54.6266993  28.0642753  55.8536493
  53.6676993  28.2572753  54.8926493  54.0656993  27.7892753  55.3786493
  52.2706993  17.2142753  44.7996493  51.9026993  17.5162753  45.5306493
  52.8046993  16.5852753  45.0836493  52.2946993  17.1662753  44.9496493
  51.9586993  25.6222753  52.3106493  51.3846993  26.0382753  52.8196493
  52.6916993  26.0872753  52.4056493  51.9826993  25.7522753  52.3996493
  53.7446993  28.8892753  41.0856493  53.5996993  29.0452753  40.2396493
  54.6106993  28.9682753  41.1636493  53.8516993  28.9242753  40.9726493
  57.9116993  21.2862753  40.8136493  58.0116993  21.4252753  39.9586493
  58.7296993  21.2262753  41.1096493  58.0466993  21.2972753  40.7306493
  57.0506993  14.2612753  53.9296493  57.2846993  13.6852753  53.3166493
  56.2086993  14.0802753  54.0706493  56.9606993  14.1492753  53.8596493
  54.4316993  27.7042753  47.5626493  54.3526993  26.8942753  47.2466493
  53.9876993  28.1912753  46.9906493  54.3546993  27.6562753  47.4316493
  60.0326993  23.8232753  40.0456493  60.7496993  23.4762753  39.6896493
  59.9986993  24.6232753  39.6976493  60.1336993  23.8902753  39.9416493
  52.0036993  29.9482753  51.1436493  52.4966993  29.8922753  51.8616493
  52.1916993  29.2152753  50.7086493  52.1046993  29.8312753  51.1856493
  51.1196993  23.5202753  24.4114083  50.6786993  23.6382753  25.1544083
  50.8366993  22.7452753  24.1264083  51.0126993  23.4232753  24.4794083
  50.8626993  17.3122753  20.9184083  50.0846993  17.4742753  20.5584083
  50.9016993  16.4412753  20.9404083  50.7536993  17.2072753  20.8684083
  54.0016993  22.5752753  19.5904083  53.6096993  22.2042753  18.9044083
  53.9216993  21.9772753  20.2194083  53.9316993  22.4322753  19.5814083
  53.6286993  24.2162753  23.4904083  54.2366993  24.0462753  24.0934083
  52.8776993  24.0762753  23.9114083  53.6076993  24.1702753  23.6414083
  57.9106993  13.5512753  23.4394083  57.8406993  14.2282753  22.8934083
  58.6516993  13.1632753  23.1904083  58.0096993  13.5942753  23.3214083
  52.5196993  27.3072753  19.5674083  52.9866993  27.3912753  18.8354083
  52.9746993  26.7292753  20.0364083  52.6556993  27.2342753  19.5284083
  51.0596993  26.2552753  30.6664083  51.1886993  25.9752753  31.4824083
  50.4496993  25.7142753  30.3574083  50.9886993  26.1342753  30.7414083
  57.6336993  23.7802753  35.7334083  57.3976993  23.7772753  36.5734083
  56.8856993  23.6322753  35.3094083  57.4876993  23.7572753  35.7944083
  52.5056993  20.7762753  24.8684083  52.0436993  20.3842753  24.2414083
  53.2056993  20.2632753  24.9604083  52.5406993  20.6432753  24.7894083
  57.0136993  16.3862753  30.2154083  57.6916993  16.4042753  29.6664083
  56.9686993  15.5502753  30.4604083  57.1066993  16.2652753  30.1704083
  57.6156993  26.9722753  32.9964083  57.7536993  27.7322753  32.5894083
  58.4066993  26.6072753  33.0234083  57.7526993  27.0312753  32.9404083
  54.5066993  18.8762753  24.8914083  55.3236993  18.6892753  25.1344083
  54.0296993  18.2622753  25.2874083  54.5566993  18.7582753  24.9864083
  58.7106993  24.8572753  27.5014083  59.0586993  24.0582753  27.5314083
  59.3756993  25.3612753  27.2464083  58.8606993  24.8132753  27.4684083
  58.7676993  24.3062753  23.7124083  59.0986993  23.6622753  24.1984083
  59.0076993  24.0952753  22.9014083  58.8516993  24.1802753  23.6644083
  60.7356993  18.4372753  35.0514083  59.8876993  18.3382753  34.8734083
  60.7646993  19.1822753  35.5054083  60.6146993  18.5332753  35.0924083
  55.1036993  13.9702753  24.1574083  54.8076993  14.4712753  23.5074083
  55.9706993  14.0482753  24.1004083  55.1876993  14.0562753  24.0534083
  58.0826993  13.1122753  26.3804083  58.1556993  13.9722753  26.5094083
  58.0446993  13.0372753  25.5124083  58.0876993  13.2282753  26.2714083
  50.9616993  18.5372753  27.8814083  50.7056993  19.3682753  27.8064083
  50.2976993  18.1542753  28.2984083  50.8256993  18.6032753  27.9324083
  50.8716993  28.2472753  25.7814083  50.2796993  28.8052753  25.4684083
  51.2976993  27.9782753  25.0694083  50.8476993  28.2892753  25.6304083
  56.7116993  26.0912753  23.2614083  56.1326993  25.8162753  23.8534083
  57.3356993  25.4822753  23.2864083  56.7186993  25.9612753  23.3524083
  53.9906993  13.3542753  28.3724083  53.4696993  12.7262753  28.0644083
  54.5816993  12.9172753  28.8434083  54.0016993  13.1962753  28.3964083
  57.2966993  15.4872753  37.6704083  57.4136993  15.0332753  36.9344083
  57.5846993  16.2852753  37.4674083  57.3566993  15.5382753  37.5314083
  52.4166993  26.9172753  23.7124083  53.0726993  26.3422753  23.7274083
  52.8056993  27.6662753  23.4914083  52.5716993  26.9422753  23.6824083
  53.0296993  15.0842753  36.6544083  52.2516993  14.6942753  36.5824083
  53.5206993  14.6722753  36.0634083  52.9866993  14.9652753  36.5564083
  53.2346993  25.4042753  27.2124083  53.6576993  25.0482753  26.5384083
  53.5586993  24.9822753  27.9044083  53.3446993  25.2892753  27.2154083
  56.4656993  28.2562753  26.5084083  57.3096993  28.3602753  26.3134083
  56.1686993  29.0742753  26.5764083  56.5466993  28.3922753  26.4894083
  59.6786993  12.7272753  35.8224083  59.8566993  11.9182753  35.5474083
  59.5356993  13.1682753  35.0834083  59.6836993  12.6732753  35.6724083
  55.4636993  29.4752753  32.2484083  55.7556993  29.4082753  33.0684083
  54.8376993  28.8702753  32.2034083  55.4146993  29.3762753  32.3634083
  50.3776993  15.6322753  34.2404083  50.3736993  16.2192753  34.8864083
  50.9716993  15.9442753  33.6834083  50.4646993  15.7652753  34.2534083
  59.8536993  26.1632753  19.5324083  59.6726993  26.7082753  20.1894083
  60.6196993  26.4532753  19.2314083  59.9396993  26.2872753  19.5854083
  51.3146993  15.2272753  23.1554083  51.2006993  14.3632753  23.1864083
  50.8396993  15.5212753  23.8254083  51.2276993  15.1432753  23.2584083
  53.4566993  27.6372753  31.3704083  52.7586993  27.1292753  31.4964083
  53.7166993  27.4322753  30.5624083  53.3916993  27.5322753  31.2694083
  60.6186993  16.4352753  21.9004083  60.1106993  15.7732753  21.6464083
  60.6706993  16.9392753  21.1904083  60.5516993  16.4122753  21.7584083
  59.2166993  15.7432753  26.3134083  59.2906993  16.3112753  25.6554083
  59.3376993  16.2352753  27.0234083  59.2446993  15.9002753  26.3214083
  54.8176993  26.4882753  33.9374083  55.6586993  26.5512753  33.7154083
  54.7806993  26.8852753  34.7134083  54.9366993  26.5562753  34.0194083
  53.8246993  11.5662753  24.6614083  54.3606993  12.2542753  24.6514083
  53.8276993  11.2922753  23.8334083  53.9036993  11.6272753  24.5374083
  56.7806993  21.9992753  28.6864083  56.9526993  21.7892753  29.5154083
  56.1256993  21.4652753  28.4704083  56.7096993  21.8892753  28.7774083
  57.5306993  21.9372753  31.2764083  57.5836993  22.7842753  31.4784083
  57.2456993  21.5672753  32.0134083  57.4966993  22.0072753  31.4144083
  50.3516993  26.3082753  37.4874083  51.1076993  26.6572753  37.7454083
  50.5286993  25.4552753  37.4304083  50.4896993  26.2332753  37.5174083
  54.2726993  15.3762753  26.3154083  54.5446993  14.9462753  25.6074083
  54.0966993  14.7402753  26.8864083  54.2866993  15.2192753  26.2954083
  54.0966993  22.8032753  25.8644083  54.9476993  22.7232753  25.6914083
  53.7396993  22.1212753  25.4524083  54.1696993  22.6902753  25.7774083
  52.8636993  29.5282753  27.1014083  52.1906993  29.0302753  26.8564083
  53.2666993  29.7132753  26.3504083  52.8236993  29.4822753  26.9544083
  52.4136993  16.4782753  29.3974083  53.2566993  16.6982753  29.3544083
  52.0246993  17.0512753  28.8664083  52.4806993  16.5952753  29.3124083
  56.4646993  22.8102753  24.0994083  57.1776993  23.3052753  24.1894083
  56.6866993  22.2432753  23.4734083  56.6026993  22.7992753  24.0204083
  50.6206993  24.4532753  27.4194083  49.9536993  24.9412753  27.6954083
  51.3006993  24.9982753  27.4484083  50.6226993  24.6052753  27.4644083
  58.2676993  18.1632753  37.5154083  57.7836993  18.7402753  37.9574083
  58.2396993  18.4582753  36.6944083  58.1916993  18.2922753  37.4594083
  50.6866993  21.1372753  22.5224083  50.5016993  20.2982753  22.6744083
  51.3456993  21.1012753  21.9524083  50.7566993  21.0082753  22.4604083
  50.8586993  25.3012753  22.0974083  51.4106993  25.8702753  22.4614083
  50.6266993  24.7862753  22.7624083  50.9056993  25.3092753  22.2494083
  55.0626993  24.3012753  29.1864083  55.5296993  24.5902753  29.8644083
  55.6346993  23.8232753  28.7324083  55.2166993  24.2732753  29.2194083
  50.6886993  23.7502753  19.7254083  51.4446993  23.3182753  19.7834083
  50.7036993  24.2822753  20.4164083  50.8026993  23.7652753  19.8364083
  51.6286993  21.9712753  27.7304083  52.0596993  21.8422753  26.9834083
  51.4236993  22.8192753  27.7044083  51.6616993  22.0772753  27.6164083
  57.9746993  15.5352753  21.3804083  57.9726993  15.4182753  20.5154083
  57.7936993  16.3832753  21.4724083  57.9476993  15.6432753  21.2664083
  55.7126993  25.4872753  26.0124083  55.8386993  26.3302753  26.1994083
  56.3806993  25.0882753  26.4084083  55.8306993  25.5532753  26.0984083
  53.8426993  18.9702753  35.8744083  53.3066993  18.4642753  36.3424083
  53.8626993  18.5802753  35.0944083  53.7656993  18.8372753  35.8284083
  54.3276993  18.3672753  21.0144083  54.1996993  17.9192753  21.7524083
  53.7456993  18.0252753  20.4624083  54.2226993  18.2502753  21.0424083
  54.4946993  20.1972753  27.6134083  53.7136993  20.1382753  27.2304083
  54.5666993  19.4452753  28.0504083  54.3896993  20.0782753  27.6214083
  54.9246993  19.9342753  31.0814083  54.9496993  19.2592753  30.5304083
  54.2786993  20.4302753  30.7694083  54.8336993  19.9072753  30.9544083
  59.0246993  28.7112753  30.4734083  58.7476993  28.0702753  29.9504083
  58.8166993  29.4372753  30.0354083  58.9536993  28.7242753  30.3314083
  52.7236993  21.2892753  36.6404083  52.6866993  21.7902753  35.9264083
  53.0546993  20.5372753  36.3454083  52.7666993  21.2512753  36.4914083
  58.6226993  26.3392753  36.0754083  58.9766993  26.1612753  36.8524083
  58.1866993  25.6102753  35.8764083  58.6106993  26.2052753  36.1614083
  59.5946993  17.0862753  28.7134083  60.0746993  17.7852753  28.9214083
  59.9676993  16.4392753  29.1644083  59.7206993  17.0942753  28.8104083
  56.7056993  28.8542753  22.6604083  56.5586993  28.0782753  23.0314083
  57.3946993  28.7072753  22.1454083  56.7856993  28.7172753  22.6394083
  56.3766993  12.5972753  20.6484083  56.4736993  12.4902753  21.5094083
  55.6686993  13.1032753  20.5834083  56.2866993  12.6562753  20.7664083
  58.9976993  28.3702753  21.0624083  59.6196993  28.5332753  21.6524083
  59.0336993  29.0612753  20.5304083  59.0946993  28.4962753  21.0714083
  53.4986993  20.9042753  21.8914083  53.8226993  20.1252753  21.6694083
  54.1446993  21.2722753  22.3464083  53.6416993  20.8432753  21.9254083
  50.4956993  12.5652753  22.8594083  50.6246993  11.8572753  22.3674083
  50.1286993  12.2472753  23.5844083  50.4606993  12.4132753  22.8944083
  60.1886993  20.2462753  23.3164083  60.2476993  20.8962753  23.8954083
  59.9996993  19.5502753  23.8074083  60.1696993  20.2392753  23.4744083
  54.6846993  14.7632753  19.8284083  54.1736993  14.8162753  19.1224083
  55.4686993  15.0032753  19.5324083  54.7246993  14.8062753  19.6804083
  59.4116993  22.2932753  27.7474083  58.5646993  22.0992753  27.8284083
  59.7356993  22.1282753  28.5404083  59.3336993  22.2402753  27.8764083
  56.1636993  29.0232753  18.6334083  56.6026993  28.3262753  18.9214083
  56.3706993  29.6472753  19.2064083  56.2596993  29.0122753  18.7604083
  53.2596993  21.9862753  30.0634083  53.9816993  22.4742753  30.0264083
  52.9896993  21.9562753  29.2344083  53.3266993  22.0542753  29.9354083
  56.4896993  17.1572753  26.7984083  57.3356993  16.9672753  26.8964083
  56.1196993  16.3802753  26.6604083  56.5596993  17.0142753  26.7924083
  51.3106993  18.4952753  23.4534083  51.7996993  18.2032753  24.1144083
  51.4396993  17.9022753  22.8264083  51.4016993  18.3642753  23.4584083
  55.8356993  19.9292753  18.9394083  55.2256993  19.5242753  19.4134083
  55.4496993  20.0472753  18.1664083  55.6886993  19.8862753  18.8954083
  52.6546993  23.0382753  34.3414083  52.2336993  22.5202753  33.7804083
  52.3026993  23.8242753  34.1984083  52.5406993  23.0782753  34.2374083
  57.2906993  18.3902753  21.6494083  57.5626993  19.2162753  21.7164083
  56.4276993  18.4652753  21.5534083  57.2036993  18.5232753  21.6444083
  50.7706993  14.3602753  28.1854083  50.8146993  14.7042753  27.3844083
  51.5256993  14.5972753  28.5524083  50.8886993  14.4462753  28.1214083
  57.3936993  24.8492753  30.9594083  57.0956993  25.4412753  31.5264083
  57.4486993  25.2912753  30.2104083  57.3576993  25.0022753  30.9324083
  55.3726993  23.7992753  34.3574083  54.5666993  23.5092753  34.5244083
  55.2836993  24.6672753  34.3634083  55.2406993  23.8842753  34.3824083
  59.9096993  21.2722753  30.4504083  60.3856993  21.6462753  31.0784083
  59.0866993  21.4062753  30.7094083  59.8586993  21.3472753  30.5814083
  56.6196993  16.8752753  33.1914083  56.7806993  16.1312753  33.6184083
  56.5746993  16.6262753  32.3564083  56.6366993  16.7282753  33.1314083
  59.1736993  28.6652753  25.6784083  59.7196993  29.3442753  25.7324083
  58.8236993  28.7472753  24.8834083  59.2026993  28.7782753  25.5684083
  58.3716993  12.6832753  33.0714083  59.0766993  13.0032753  32.6694083
  58.6126993  11.8762753  33.2984083  58.5106993  12.6112753  33.0454083
  57.3566993  26.8932753  29.0674083  56.7326993  27.4752753  28.8854083
  57.6046993  26.6072753  28.2814083  57.3006993  26.9372753  28.9244083
  58.9506993  21.6692753  18.9824083  58.1456993  21.4922753  18.6974083
  58.9176993  22.5202753  19.1744083  58.8266993  21.7682753  18.9694083
  54.8806993  17.7362753  29.1324083  55.3206993  17.6332753  28.3864083
  55.4256993  17.4232753  29.7374083  55.0256993  17.6752753  29.1114083
  60.0096993  28.5422753  34.9474083  60.4876993  27.9422753  34.5314083
  59.6586993  28.0992753  35.6124083  60.0286993  28.3882753  34.9844083
  58.4276993  12.7212753  29.1794083  57.6016993  12.5722753  29.4164083
  58.3876993  12.7562753  28.3084083  58.2996993  12.7042753  29.0854083
  60.0686993  23.7612753  33.9674083  59.2736993  23.6972753  34.3184083
  60.1396993  24.6082753  33.7724083  59.9616993  23.8762753  33.9904083
  50.9926993  13.1192753  35.2144083  50.8526993  13.9142753  34.8834083
  50.2066993  12.8762753  35.5034083  50.8556993  13.2012753  35.2084083
  55.8986993  29.9682753  29.2844083  55.9096993  30.0272753  30.1544083
  55.4736993  29.2212753  29.1344083  55.8376993  29.8662753  29.3904083
  54.0566993  15.8632753  22.4394083  54.1826993  15.5342753  21.6414083
  53.2446993  15.6142753  22.6384083  53.9556993  15.7782753  22.3514083
  52.6626993  29.4662753  34.7264083  52.0086993  28.8972753  34.8244083
  52.2876993  30.2392753  34.8774083  52.5106993  29.4962753  34.7634083
  54.0336993  17.8742753  32.8554083  54.4086993  18.4932753  32.3684083
  54.7076993  17.4002753  33.1404083  54.1886993  17.8962753  32.8254083
  51.8086993  16.3222753  32.1304083  51.8856993  16.1532753  31.2774083
  52.5546993  16.7282753  32.3274083  51.9296993  16.3572753  32.0334083
  54.3626993  13.7322753  34.5414083  54.2816993  12.8882753  34.7474083
  54.0486993  13.7762753  33.7284083  54.3046993  13.6142753  34.4514083
  51.2056993  21.5482753  32.3544083  51.5256993  21.7672753  31.5734083
  51.1056993  20.6832753  32.2994083  51.2376993  21.4532753  32.2314083
  52.6616993  17.4842753  18.9724083  51.9896993  17.4982753  19.5284083
  52.7566993  16.6362753  18.7884083  52.5766993  17.3612753  19.0274083
  56.6496993  26.1892753  20.0864083  57.0906993  26.2692753  20.8344083
  55.8446993  25.9732753  20.3444083  56.5956993  26.1692753  20.2354083
  55.9686993  20.8402753  33.7394083  55.5726993  21.6142753  33.8144083
  55.5626993  20.4672753  33.0634083  55.8506993  20.8992753  33.6504083
  53.9786993  25.2592753  20.6874083  53.7346993  24.9522753  21.4674083
  53.9456993  24.5562753  20.1714083  53.9376993  25.1102753  20.7264083
  56.7976993  23.5042753  19.4304083  55.9796993  23.2362753  19.5704083
  56.7696993  24.3562753  19.6154083  56.6726993  23.5912753  19.4784083
  56.3976993  13.8172753  31.1894083  55.5336993  13.9012753  31.2694083
  56.6176993  13.3032753  31.8584083  56.3026993  13.7542753  31.3004083
  58.0036993  18.8942753  34.7674083  57.6816993  18.3182753  34.1974083
  57.6446993  19.6492753  34.5214083  57.9036993  18.9202753  34.6474083
  58.7996993  12.1462753  19.3944083  58.8776993  12.3932753  18.5614083
  58.0566993  12.5232753  19.6524083  58.7016993  12.2382753  19.3094083
  56.4386993  29.2502753  35.0154083  56.4796993  29.3762753  35.8784083
  57.0896993  28.6902753  34.8594083  56.5406993  29.1862753  35.1204083
  53.6176993  13.9002753  31.8374083  53.2746993  13.1332753  31.6034083
  52.9226993  14.4242753  31.9014083  53.4646993  13.8642753  31.8124083
  54.0316993  27.6332753  36.3754083  54.6266993  28.0642753  36.8474083
  53.6676993  28.2572753  35.8864083  54.0656993  27.7892753  36.3724083
  52.2706993  17.2142753  25.7934083  51.9026993  17.5162753  26.5244083
  52.8046993  16.5852753  26.0774083  52.2946993  17.1662753  25.9434083
  51.9586993  25.6222753  33.3044083  51.3846993  26.0382753  33.8134083
  52.6916993  26.0872753  33.3994083  51.9826993  25.7522753  33.3934083
  53.7446993  28.8892753  22.0794083  53.5996993  29.0452753  21.2334083
  54.6106993  28.9682753  22.1574083  53.8516993  28.9242753  21.9664083
  57.9116993  21.2862753  21.8074083  58.0116993  21.4252753  20.9524083
  58.7296993  21.2262753  22.1034083  58.0466993  21.2972753  21.7244083
  57.0506993  14.2612753  34.9234083  57.2846993  13.6852753  34.3104083
  56.2086993  14.0802753  35.0644083  56.9606993  14.1492753  34.8534083
  54.4316993  27.7042753  28.5564083  54.3526993  26.8942753  28.2404083
  53.9876993  28.1912753  27.9844083  54.3546993  27.6562753  28.4254083
  60.0326993  23.8232753  21.0394083  60.7496993  23.4762753  20.6834083
  59.9986993  24.6232753  20.6914083  60.1336993  23.8902753  20.9354083
  52.0036993  29.9482753  32.1374083  52.4966993  29.8922753  32.8554083
  52.1916993  29.2152753  31.7024083  52.1046993  29.8312753  32.1794083
  51.1196993  23.5202753   5.4051673  50.6786993  23.6382753   6.1481673
  50.8366993  22.7452753   5.1201673  51.0126993  23.4232753   5.4731673
  53.6286993  24.2162753   4.4841673  54.2366993  24.0462753   5.0871673
  52.8776993  24.0762753   4.9051673  53.6076993  24.1702753   4.6351673
  57.9106993  13.5512753   4.4331673  57.8406993  14.2282753   3.8871673
  58.6516993  13.1632753   4.1841673  58.0096993  13.5942753   4.3151673
  51.0596993  26.2552753  11.6601673  51.1886993  25.9752753  12.4761673
  50.4496993  25.7142753  11.3511673  50.9886993  26.1342753  11.7351673
  57.6336993  23.7802753  16.7271673  57.3976993  23.7772753  17.5671673
  56.8856993  23.6322753  16.3031673  57.4876993  23.7572753  16.7881673
  52.5056993  20.7762753   5.8621673  52.0436993  20.3842753   5.2351673
  53.2056993  20.2632753   5.9541673  52.5406993  20.6432753   5.7831673
  57.0136993  16.3862753  11.2091673  57.6916993  16.4042753  10.6601673
  56.9686993  15.5502753  11.4541673  57.1066993  16.2652753  11.1641673
  57.6156993  26.9722753  13.9901673  57.7536993  27.7322753  13.5831673
  58.4066993  26.6072753  14.0171673  57.7526993  27.0312753  13.9341673
  54.5066993  18.8762753   5.8851673  55.3236993  18.6892753   6.1281673
  54.0296993  18.2622753   6.2811673  54.5566993  18.7582753   5.9801673
  58.7106993  24.8572753   8.4951673  59.0586993  24.0582753   8.5251673
  59.3756993  25.3612753   8.2401673  58.8606993  24.8132753   8.4621673
  58.7676993  24.3062753   4.7061673  59.0986993  23.6622753   5.1921673
  59.0076993  24.0952753   3.8951673  58.8516993  24.1802753   4.6581673
  60.7356993  18.4372753  16.0451673  59.8876993  18.3382753  15.8671673
  60.7646993  19.1822753  16.4991673  60.6146993  18.5332753  16.0861673
  55.1036993  13.9702753   5.1511673  54.8076993  14.4712753   4.5011673
  55.9706993  14.0482753   5.0941673  55.1876993  14.0562753   5.0471673
  58.0826993  13.1122753   7.3741673  58.1556993  13.9722753   7.5031673
  58.0446993  13.0372753   6.5061673  58.0876993  13.2282753   7.2651673
  50.9616993  18.5372753   8.8751673  50.7056993  19.3682753   8.8001673
  50.2976993  18.1542753   9.2921673  50.8256993  18.6032753   8.9261673
  50.8716993  28.2472753   6.7751673  50.2796993  28.8052753   6.4621673
  51.2976993  27.9782753   6.0631673  50.8476993  28.2892753   6.6241673
  56.7116993  26.0912753   4.2551673  56.1326993  25.8162753   4.8471673
  57.3356993  25.4822753   4.2801673  56.7186993  25.9612753   4.3461673
  53.9906993  13.3542753   9.3661673  53.4696993  12.7262753   9.0581673
  54.5816993  12.9172753   9.8371673  54.0016993  13.1962753   9.3901673
  57.2966993  15.4872753  18.6641673  57.4136993  15.0332753  17.9281673
  57.5846993  16.2852753  18.4611673  57.3566993  15.5382753  18.5251673
  52.4166993  26.9172753   4.7061673  53.0726993  26.3422753   4.7211673
  52.8056993  27.6662753   4.4851673  52.5716993  26.9422753   4.6761673
  53.0296993  15.0842753  17.6481673  52.2516993  14.6942753  17.5761673
  53.5206993  14.6722753  17.0571673  52.9866993  14.9652753  17.5501673
  53.2346993  25.4042753   8.2061673  53.6576993  25.0482753   7.5321673
  53.5586993  24.9822753   8.8981673  53.3446993  25.2892753   8.2091673
  56.4656993  28.2562753   7.5021673  57.3096993  28.3602753   7.3071673
  56.1686993  29.0742753   7.5701673  56.5466993  28.3922753   7.4831673
  59.6786993  12.7272753  16.8161673  59.8566993  11.9182753  16.5411673
  59.5356993  13.1682753  16.0771673  59.6836993  12.6732753  16.6661673
  55.4636993  29.4752753  13.2421673  55.7556993  29.4082753  14.0621673
  54.8376993  28.8702753  13.1971673  55.4146993  29.3762753  13.3571673
  50.3776993  15.6322753  15.2341673  50.3736993  16.2192753  15.8801673
  50.9716993  15.9442753  14.6771673  50.4646993  15.7652753  15.2471673
  51.3146993  15.2272753   4.1491673  51.2006993  14.3632753   4.1801673
  50.8396993  15.5212753   4.8191673  51.2276993  15.1432753   4.2521673
  53.4566993  27.6372753  12.3641673  52.7586993  27.1292753  12.4901673
  53.7166993  27.4322753  11.5561673  53.3916993  27.5322753  12.2631673
  60.6186993  16.4352753   2.8941673  60.1106993  15.7732753   2.6401673
  60.6706993  16.9392753   2.1841673  60.5516993  16.4122753   2.7521673
  59.2166993  15.7432753   7.3071673  59.2906993  16.3112753   6.6491673
  59.3376993  16.2352753   8.0171673  59.2446993  15.9002753   7.3151673
  54.8176993  26.4882753  14.9311673  55.6586993  26.5512753  14.7091673
  54.7806993  26.8852753  15.7071673  54.9366993  26.5562753  15.0131673
  53.8246993  11.5662753   5.6551673  54.3606993  12.2542753   5.6451673
  53.8276993  11.2922753   4.8271673  53.9036993  11.6272753   5.5311673
  56.7806993  21.9992753   9.6801673  56.9526993  21.7892753  10.5091673
  56.1256993  21.4652753   9.4641673  56.7096993  21.8892753   9.7711673
  57.5306993  21.9372753  12.2701673  57.5836993  22.7842753  12.4721673
  57.2456993  21.5672753  13.0071673  57.4966993  22.0072753  12.4081673
  50.3516993  26.3082753  18.4811673  51.1076993  26.6572753  18.7391673
  50.5286993  25.4552753  18.4241673  50.4896993  26.2332753  18.5111673
  54.2726993  15.3762753   7.3091673  54.5446993  14.9462753   6.6011673
  54.0966993  14.7402753   7.8801673  54.2866993  15.2192753   7.2891673
  54.0966993  22.8032753   6.8581673  54.9476993  22.7232753   6.6851673
  53.7396993  22.1212753   6.4461673  54.1696993  22.6902753   6.7711673
  52.8636993  29.5282753   8.0951673  52.1906993  29.0302753   7.8501673
  53.2666993  29.7132753   7.3441673  52.8236993  29.4822753   7.9481673
  52.4136993  16.4782753  10.3911673  53.2566993  16.6982753  10.3481673
  52.0246993  17.0512753   9.8601673  52.4806993  16.5952753  10.3061673
  56.4646993  22.8102753   5.0931673  57.1776993  23.3052753   5.1831673
  56.6866993  22.2432753   4.4671673  56.6026993  22.7992753   5.0141673
  50.6206993  24.4532753   8.4131673  49.9536993  24.9412753   8.6891673
  51.3006993  24.9982753   8.4421673  50.6226993  24.6052753   8.4581673
  58.2676993  18.1632753  18.5091673  57.7836993  18.7402753  18.9511673
  58.2396993  18.4582753  17.6881673  58.1916993  18.2922753  18.4531673
  50.6866993  21.1372753   3.5161673  50.5016993  20.2982753   3.6681673
  51.3456993  21.1012753   2.9461673  50.7566993  21.0082753   3.4541673
  50.8586993  25.3012753   3.0911673  51.4106993  25.8702753   3.4551673
  50.6266993  24.7862753   3.7561673  50.9056993  25.3092753   3.2431673
  55.0626993  24.3012753  10.1801673  55.5296993  24.5902753  10.8581673
  55.6346993  23.8232753   9.7261673  55.2166993  24.2732753  10.2131673
  51.6286993  21.9712753   8.7241673  52.0596993  21.8422753   7.9771673
  51.4236993  22.8192753   8.6981673  51.6616993  22.0772753   8.6101673
  55.7126993  25.4872753   7.0061673  55.8386993  26.3302753   7.1931673
  56.3806993  25.0882753   7.4021673  55.8306993  25.5532753   7.0921673
  53.8426993  18.9702753  16.8681673  53.3066993  18.4642753  17.3361673
  53.8626993  18.5802753  16.0881673  53.7656993  18.8372753  16.8221673
  54.4946993  20.1972753   8.6071673  53.7136993  20.1382753   8.2241673
  54.5666993  19.4452753   9.0441673  54.3896993  20.0782753   8.6151673
  54.9246993  19.9342753  12.0751673  54.9496993  19.2592753  11.5241673
  54.2786993  20.4302753  11.7631673  54.8336993  19.9072753  11.9481673
  59.0246993  28.7112753  11.4671673  58.7476993  28.0702753  10.9441673
  58.8166993  29.4372753  11.0291673  58.9536993  28.7242753  11.3251673
  52.7236993  21.2892753  17.6341673  52.6866993  21.7902753  16.9201673
  53.0546993  20.5372753  17.3391673  52.7666993  21.2512753  17.4851673
  58.6226993  26.3392753  17.0691673  58.9766993  26.1612753  17.8461673
  58.1866993  25.6102753  16.8701673  58.6106993  26.2052753  17.1551673
  59.5946993  17.0862753   9.7071673  60.0746993  17.7852753   9.9151673
  59.9676993  16.4392753  10.1581673  59.7206993  17.0942753   9.8041673
  56.7056993  28.8542753   3.6541673  56.5586993  28.0782753   4.0251673
  57.3946993  28.7072753   3.1391673  56.7856993  28.7172753   3.6331673
  53.4986993  20.9042753   2.8851673  53.8226993  20.1252753   2.6631673
  54.1446993  21.2722753   3.3401673  53.6416993  20.8432753   2.9191673
  50.4956993  12.5652753   3.8531673  50.6246993  11.8572753   3.3611673
  50.1286993  12.2472753   4.5781673  50.4606993  12.4132753   3.8881673
  60.1886993  20.2462753   4.3101673  60.2476993  20.8962753   4.8891673
  59.9996993  19.5502753   4.8011673  60.1696993  20.2392753   4.4681673
  59.4116993  22.2932753   8.7411673  58.5646993  22.0992753   8.8221673
  59.7356993  22.1282753   9.5341673  59.3336993  22.2402753   8.8701673
  53.2596993  21.9862753  11.0571673  53.9816993  22.4742753  11.0201673
  52.9896993  21.9562753  10.2281673  53.3266993  22.0542753  10.9291673
  56.4896993  17.1572753   7.7921673  57.3356993  16.9672753   7.8901673
  56.1196993  16.3802753   7.6541673  56.5596993  17.0142753   7.7861673
  51.3106993  18.4952753   4.4471673  51.7996993  18.2032753   5.1081673
  51.4396993  17.9022753   3.8201673  51.4016993  18.3642753   4.4521673
  52.6546993  23.0382753  15.3351673  52.2336993  22.5202753  14.7741673
  52.3026993  23.8242753  15.1921673  52.5406993  23.0782753  15.2311673
  57.2906993  18.3902753   2.6431673  57.5626993  19.2162753   2.7101673
  56.4276993  18.4652753   2.5471673  57.2036993  18.5232753   2.6381673
  50.7706993  14.3602753   9.1791673  50.8146993  14.7042753   8.3781673
  51.5256993  14.5972753   9.5461673  50.8886993  14.4462753   9.1151673
  57.3936993  24.8492753  11.9531673  57.0956993  25.4412753  12.5201673
  57.4486993  25.2912753  11.2041673  57.3576993  25.0022753  11.9261673
  55.3726993  23.7992753  15.3511673  54.5666993  23.5092753  15.5181673
  55.2836993  24.6672753  15.3571673  55.2406993  23.8842753  15.3761673
  59.9096993  21.2722753  11.4441673  60.3856993  21.6462753  12.0721673
  59.0866993  21.4062753  11.7031673  59.8586993  21.3472753  11.5751673
  56.6196993  16.8752753  14.1851673  56.7806993  16.1312753  14.6121673
  56.5746993  16.6262753  13.3501673  56.6366993  16.7282753  14.1251673
  59.1736993  28.6652753   6.6721673  59.7196993  29.3442753   6.7261673
  58.8236993  28.7472753   5.8771673  59.2026993  28.7782753   6.5621673
  58.3716993  12.6832753  14.0651673  59.0766993  13.0032753  13.6631673
  58.6126993  11.8762753  14.2921673  58.5106993  12.6112753  14.0391673
  57.3566993  26.8932753  10.0611673  56.7326993  27.4752753   9.8791673
  57.6046993  26.6072753   9.2751673  57.3006993  26.9372753   9.9181673
  54.8806993  17.7362753  10.1261673  55.3206993  17.6332753   9.3801673
  55.4256993  17.4232753  10.7311673  55.0256993  17.6752753  10.1051673
  60.0096993  28.5422753  15.9411673  60.4876993  27.9422753  15.5251673
  59.6586993  28.0992753  16.6061673  60.0286993  28.3882753  15.9781673
  58.4276993  12.7212753  10.1731673  57.6016993  12.5722753  10.4101673
  58.3876993  12.7562753   9.3021673  58.2996993  12.7042753  10.0791673
  60.0686993  23.7612753  14.9611673  59.2736993  23.6972753  15.3121673
  60.1396993  24.6082753  14.7661673  59.9616993  23.8762753  14.9841673
  50.9926993  13.1192753  16.2081673  50.8526993  13.9142753  15.8771673
  50.2066993  12.8762753  16.4971673  50.8556993  13.2012753  16.2021673
  55.8986993  29.9682753  10.2781673  55.9096993  30.0272753  11.1481673
  55.4736993  29.2212753  10.1281673  55.8376993  29.8662753  10.3841673
  54.0566993  15.8632753   3.4331673  54.1826993  15.5342753   2.6351673
  53.2446993  15.6142753   3.6321673  53.9556993  15.7782753   3.3451673
  52.6626993  29.4662753  15.7201673  52.0086993  28.8972753  15.8181673
  52.2876993  30.2392753  15.8711673  52.5106993  29.4962753  15.7571673
  54.0336993  17.8742753  13.8491673  54.4086993  18.4932753  13.3621673
  54.7076993  17.4002753  14.1341673  54.1886993  17.8962753  13.8191673
  51.8086993  16.3222753  13.1241673  51.8856993  16.1532753  12.2711673
  52.5546993  16.7282753  13.3211673  51.9296993  16.3572753  13.0271673
  54.3626993  13.7322753  15.5351673  54.2816993  12.8882753  15.7411673
  54.0486993  13.7762753  14.7221673  54.3046993  13.6142753  15.4451673
  51.2056993  21.5482753  13.3481673  51.5256993  21.7672753  12.5671673
  51.1056993  20.6832753  13.2931673  51.2376993  21.4532753  13.2251673
  55.9686993  20.8402753  14.7331673  55.5726993  21.6142753  14.8081673
  55.5626993  20.4672753  14.0571673  55.8506993  20.8992753  14.6441673
  56.3976993  13.8172753  12.1831673  55.5336993  13.9012753  12.2631673
  56.6176993  13.3032753  12.8521673  56.3026993  13.7542753  12.2941673
  58.0036993  18.8942753  15.7611673  57.6816993  18.3182753  15.1911673
  57.6446993  19.6492753  15.5151673  57.9036993  18.9202753  15.6411673
  56.4386993  29.2502753  16.0091673  56.4796993  29.3762753  16.8721673
  57.0896993  28.6902753  15.8531673  56.5406993  29.1862753  16.1141673
  53.6176993  13.9002753  12.8311673  53.2746993  13.1332753  12.5971673
  52.9226993  14.4242753  12.8951673  53.4646993  13.8642753  12.8061673
  54.0316993  27.6332753  17.3691673  54.6266993  28.0642753  17.8411673
  53.6676993  28.2572753  16.8801673  54.0656993  27.7892753  17.3661673
  52.2706993  17.2142753   6.7871673  51.9026993  17.5162753   7.5181673
  52.8046993  16.5852753   7.0711673  52.2946993  17.1662753   6.9371673
  51.9586993  25.6222753  14.2981673  51.3846993  26.0382753  14.8071673
  52.6916993  26.0872753  14.3931673  51.9826993  25.7522753  14.3871673
  53.7446993  28.8892753   3.0731673  53.5996993  29.0452753   2.2271673
  54.6106993  28.9682753   3.1511673  53.8516993  28.9242753   2.9601673
  57.9116993  21.2862753   2.8011673  58.0116993  21.4252753   1.9461673
  58.7296993  21.2262753   3.0971673  58.0466993  21.2972753   2.7181673
  57.0506993  14.2612753  15.9171673  57.2846993  13.6852753  15.3041673
  56.2086993  14.0802753  16.0581673  56.9606993  14.1492753  15.8471673
  54.4316993  27.7042753   9.5501673  54.3526993  26.8942753   9.2341673
  53.9876993  28.1912753   8.9781673  54.3546993  27.6562753   9.4191673
  60.0326993  23.8232753   2.0331673  60.7496993  23.4762753   1.6771673
  59.9986993  24.6232753   1.6851673  60.1336993  23.8902753   1.9291673
  52.0036993  29.9482753  13.1311673  52.4966993  29.8922753  13.8491673
  52.1916993  29.2152753  12.6961673  52.1046993  29.8312753  13.1731673
  51.1196993   5.0421673  81.4301313  50.6786993   5.1601673  82.1731313
  50.8366993   4.2671673  81.1451313  51.0126993   4.9451673  81.4981313
  54.0016993   4.0971673  76.6091313  53.6096993   3.7261673  75.9231313
  53.9216993   3.4991673  77.2381313  53.9316993   3.9541673  76.6001313
  53.6286993   5.7381673  80.5091313  54.2366993   5.5681673  81.1121313
  52.8776993   5.5981673  80.9301313  53.6076993   5.6921673  80.6601313
  52.5196993   8.8291673  76.5861313  52.9866993   8.9131673  75.8541313
  52.9746993   8.2511673  77.0551313  52.6556993   8.7561673  76.5471313
  51.0596993   7.7771673  87.6851313  51.1886993   7.4971673  88.5011313
  50.4496993   7.2361673  87.3761313  50.9886993   7.6561673  87.7601313
  52.5056993   2.2981673  81.8871313  52.0436993   1.9061673  81.2601313
  53.2056993   1.7851673  81.9791313  52.5406993   2.1651673  81.8081313
  57.6156993   8.4941673  90.0151313  57.7536993   9.2541673  89.6081313
  58.4066993   8.1291673  90.0421313  57.7526993   8.5531673  89.9591313
  58.7106993   6.3791673  84.5201313  59.0586993   5.5801673  84.5501313
  59.3756993   6.8831673  84.2651313  58.8606993   6.3351673  84.4871313
  58.7676993   5.8281673  80.7311313  59.0986993   5.1841673  81.2171313
  59.0076993   5.6171673  79.9201313  58.8516993   5.7021673  80.6831313
  50.8716993   9.7691673  82.8001313  50.2796993  10.3271673  82.4871313
  51.2976993   9.5001673  82.0881313  50.8476993   9.8111673  82.6491313
  56.7116993   7.6131673  80.2801313  56.1326993   7.3381673  80.8721313
  57.3356993   7.0041673  80.3051313  56.7186993   7.4831673  80.3711313
  52.4166993   8.4391673  80.7311313  53.0726993   7.8641673  80.7461313
  52.8056993   9.1881673  80.5101313  52.5716993   8.4641673  80.7011313
  53.2346993   6.9261673  84.2311313  53.6576993   6.5701673  83.5571313
  53.5586993   6.5041673  84.9231313  53.3446993   6.8111673  84.2341313
  56.4656993   9.7781673  83.5271313  57.3096993   9.8821673  83.3321313
  56.1686993  10.5961673  83.5951313  56.5466993   9.9141673  83.5081313
  55.4636993  10.9971673  89.2671313  55.7556993  10.9301673  90.0871313
  54.8376993  10.3921673  89.2221313  55.4146993  10.8981673  89.3821313
  59.8536993   7.6851673  76.5511313  59.6726993   8.2301673  77.2081313
  60.6196993   7.9751673  76.2501313  59.9396993   7.8091673  76.6041313
  53.4566993   9.1591673  88.3891313  52.7586993   8.6511673  88.5151313
  53.7166993   8.9541673  87.5811313  53.3916993   9.0541673  88.2881313
  54.8176993   8.0101673  90.9561313  55.6586993   8.0731673  90.7341313
  54.7806993   8.4071673  91.7321313  54.9366993   8.0781673  91.0381313
  56.7806993   3.5211673  85.7051313  56.9526993   3.3111673  86.5341313
  56.1256993   2.9871673  85.4891313  56.7096993   3.4111673  85.7961313
  57.5306993   3.4591673  88.2951313  57.5836993   4.3061673  88.4971313
  57.2456993   3.0891673  89.0321313  57.4966993   3.5291673  88.4331313
  54.0966993   4.3251673  82.8831313  54.9476993   4.2451673  82.7101313
  53.7396993   3.6431673  82.4711313  54.1696993   4.2121673  82.7961313
  52.8636993  11.0501673  84.1201313  52.1906993  10.5521673  83.8751313
  53.2666993  11.2351673  83.3691313  52.8236993  11.0041673  83.9731313
  56.4646993   4.3321673  81.1181313  57.1776993   4.8271673  81.2081313
  56.6866993   3.7651673  80.4921313  56.6026993   4.3211673  81.0391313
  50.6206993   5.9751673  84.4381313  49.9536993   6.4631673  84.7141313
  51.3006993   6.5201673  84.4671313  50.6226993   6.1271673  84.4831313
  50.6866993   2.6591673  79.5411313  50.5016993   1.8201673  79.6931313
  51.3456993   2.6231673  78.9711313  50.7566993   2.5301673  79.4791313
  50.8586993   6.8231673  79.1161313  51.4106993   7.3921673  79.4801313
  50.6266993   6.3081673  79.7811313  50.9056993   6.8311673  79.2681313
  55.0626993   5.8231673  86.2051313  55.5296993   6.1121673  86.8831313
  55.6346993   5.3451673  85.7511313  55.2166993   5.7951673  86.2381313
  50.6886993   5.2721673  76.7441313  51.4446993   4.8401673  76.8021313
  50.7036993   5.8041673  77.4351313  50.8026993   5.2871673  76.8551313
  51.6286993   3.4931673  84.7491313  52.0596993   3.3641673  84.0021313
  51.4236993   4.3411673  84.7231313  51.6616993   3.5991673  84.6351313
  55.7126993   7.0091673  83.0311313  55.8386993   7.8521673  83.2181313
  56.3806993   6.6101673  83.4271313  55.8306993   7.0751673  83.1171313
  59.0246993  10.2331673  87.4921313  58.7476993   9.5921673  86.9691313
  58.8166993  10.9591673  87.0541313  58.9536993  10.2461673  87.3501313
  56.7056993  10.3761673  79.6791313  56.5586993   9.6001673  80.0501313
  57.3946993  10.2291673  79.1641313  56.7856993  10.2391673  79.6581313
  58.9976993   9.8921673  78.0811313  59.6196993  10.0551673  78.6711313
  59.0336993  10.5831673  77.5491313  59.0946993  10.0181673  78.0901313
  59.4116993   3.8151673  84.7661313  58.5646993   3.6211673  84.8471313
  59.7356993   3.6501673  85.5591313  59.3336993   3.7621673  84.8951313
  56.1636993  10.5451673  75.6521313  56.6026993   9.8481673  75.9401313
  56.3706993  11.1691673  76.2251313  56.2596993  10.5341673  75.7791313
  53.2596993   3.5081673  87.0821313  53.9816993   3.9961673  87.0451313
  52.9896993   3.4781673  86.2531313  53.3266993   3.5761673  86.9541313
  52.6546993   4.5601673  91.3601313  52.2336993   4.0421673  90.7991313
  52.3026993   5.3461673  91.2171313  52.5406993   4.6001673  91.2561313
  57.3936993   6.3711673  87.9781313  57.0956993   6.9631673  88.5451313
  57.4486993   6.8131673  87.2291313  57.3576993   6.5241673  87.9511313
  55.3726993   5.3211673  91.3761313  54.5666993   5.0311673  91.5431313
  55.2836993   6.1891673  91.3821313  55.2406993   5.4061673  91.4011313
  59.9096993   2.7941673  87.4691313  60.3856993   3.1681673  88.0971313
  59.0866993   2.9281673  87.7281313  59.8586993   2.8691673  87.6001313
  59.1736993  10.1871673  82.6971313  59.7196993  10.8661673  82.7511313
  58.8236993  10.2691673  81.9021313  59.2026993  10.3001673  82.5871313
  57.3566993   8.4151673  86.0861313  56.7326993   8.9971673  85.9041313
  57.6046993   8.1291673  85.3001313  57.3006993   8.4591673  85.9431313
  58.9506993   3.1911673  76.0011313  58.1456993   3.0141673  75.7161313
  58.9176993   4.0421673  76.1931313  58.8266993   3.2901673  75.9881313
  60.0096993  10.0641673  91.9661313  60.4876993   9.4641673  91.5501313
  59.6586993   9.6211673  92.6311313  60.0286993   9.9101673  92.0031313
  60.0686993   5.2831673  90.9861313  59.2736993   5.2191673  91.3371313
  60.1396993   6.1301673  90.7911313  59.9616993   5.3981673  91.0091313
  55.8986993  11.4901673  86.3031313  55.9096993  11.5491673  87.1731313
  55.4736993  10.7431673  86.1531313  55.8376993  11.3881673  86.4091313
  52.6626993  10.9881673  91.7451313  52.0086993  10.4191673  91.8431313
  52.2876993  11.7611673  91.8961313  52.5106993  11.0181673  91.7821313
  51.2056993   3.0701673  89.3731313  51.5256993   3.2891673  88.5921313
  51.1056993   2.2051673  89.3181313  51.2376993   2.9751673  89.2501313
  56.6496993   7.7111673  77.1051313  57.0906993   7.7911673  77.8531313
  55.8446993   7.4951673  77.3631313  56.5956993   7.6911673  77.2541313
  55.9686993   2.3621673  90.7581313  55.5726993   3.1361673  90.8331313
  55.5626993   1.9891673  90.0821313  55.8506993   2.4211673  90.6691313
  53.9786993   6.7811673  77.7061313  53.7346993   6.4741673  78.4861313
  53.9456993   6.0781673  77.1901313  53.9376993   6.6321673  77.7451313
  56.7976993   5.0261673  76.4491313  55.9796993   4.7581673  76.5891313
  56.7696993   5.8781673  76.6341313  56.6726993   5.1131673  76.4971313
  51.9586993   7.1441673  90.3231313  51.3846993   7.5601673  90.8321313
  52.6916993   7.6091673  90.4181313  51.9826993   7.2741673  90.4121313
  53.7446993  10.4111673  79.0981313  53.5996993  10.5671673  78.2521313
  54.6106993  10.4901673  79.1761313  53.8516993  10.4461673  78.9851313
  57.9116993   2.8081673  78.8261313  58.0116993   2.9471673  77.9711313
  58.7296993   2.7481673  79.1221313  58.0466993   2.8191673  78.7431313
  54.4316993   9.2261673  85.5751313  54.3526993   8.4161673  85.2591313
  53.9876993   9.7131673  85.0031313  54.3546993   9.1781673  85.4441313
  60.0326993   5.3451673  78.0581313  60.7496993   4.9981673  77.7021313
  59.9986993   6.1451673  77.7101313  60.1336993   5.4121673  77.9541313
  52.0036993  11.4701673  89.1561313  52.4966993  11.4141673  89.8741313
  52.1916993  10.7371673  88.7211313  52.1046993  11.3531673  89.1981313
  51.1196993   5.0421673  62.4238903  50.6786993   5.1601673  63.1668903
  50.8366993   4.2671673  62.1388903  51.0126993   4.9451673  62.4918903
  54.0016993   4.0971673  57.6028903  53.6096993   3.7261673  56.9168903
  53.9216993   3.4991673  58.2318903  53.9316993   3.9541673  57.5938903
  53.6286993   5.7381673  61.5028903  54.2366993   5.5681673  62.1058903
  52.8776993   5.5981673  61.9238903  53.6076993   5.6921673  61.6538903
  52.5196993   8.8291673  57.5798903  52.9866993   8.9131673  56.8478903
  52.9746993   8.2511673  58.0488903  52.6556993   8.7561673  57.5408903
  51.0596993   7.7771673  68.6788903  51.1886993   7.4971673  69.4948903
  50.4496993   7.2361673  68.3698903  50.9886993   7.6561673  68.7538903
  57.6336993   5.3021673  73.7458903  57.3976993   5.2991673  74.5858903
  56.8856993   5.1541673  73.3218903  57.4876993   5.2791673  73.8068903
  52.5056993   2.2981673  62.8808903  52.0436993   1.9061673  62.2538903
  53.2056993   1.7851673  62.9728903  52.5406993   2.1651673  62.8018903
  57.6156993   8.4941673  71.0088903  57.7536993   9.2541673  70.6018903
  58.4066993   8.1291673  71.0358903  57.7526993   8.5531673  70.9528903
  58.7106993   6.3791673  65.5138903  59.0586993   5.5801673  65.5438903
  59.3756993   6.8831673  65.2588903  58.8606993   6.3351673  65.4808903
  58.7676993   5.8281673  61.7248903  59.0986993   5.1841673  62.2108903
  59.0076993   5.6171673  60.9138903  58.8516993   5.7021673  61.6768903
  50.8716993   9.7691673  63.7938903  50.2796993  10.3271673  63.4808903
  51.2976993   9.5001673  63.0818903  50.8476993   9.8111673  63.6428903
  56.7116993   7.6131673  61.2738903  56.1326993   7.3381673  61.8658903
  57.3356993   7.0041673  61.2988903  56.7186993   7.4831673  61.3648903
  52.4166993   8.4391673  61.7248903  53.0726993   7.8641673  61.7398903
  52.8056993   9.1881673  61.5038903  52.5716993   8.4641673  61.6948903
  53.2346993   6.9261673  65.2248903  53.6576993   6.5701673  64.5508903
  53.5586993   6.5041673  65.9168903  53.3446993   6.8111673  65.2278903
  56.4656993   9.7781673  64.5208903  57.3096993   9.8821673  64.3258903
  56.1686993  10.5961673  64.5888903  56.5466993   9.9141673  64.5018903
  55.4636993  10.9971673  70.2608903  55.7556993  10.9301673  71.0808903
  54.8376993  10.3921673  70.2158903  55.4146993  10.8981673  70.3758903
  59.8536993   7.6851673  57.5448903  59.6726993   8.2301673  58.2018903
  60.6196993   7.9751673  57.2438903  59.9396993   7.8091673  57.5978903
  53.4566993   9.1591673  69.3828903  52.7586993   8.6511673  69.5088903
  53.7166993   8.9541673  68.5748903  53.3916993   9.0541673  69.2818903
  54.8176993   8.0101673  71.9498903  55.6586993   8.0731673  71.7278903
  54.7806993   8.4071673  72.7258903  54.9366993   8.0781673  72.0318903
  56.7806993   3.5211673  66.6988903  56.9526993   3.3111673  67.5278903
  56.1256993   2.9871673  66.4828903  56.7096993   3.4111673  66.7898903
  57.5306993   3.4591673  69.2888903  57.5836993   4.3061673  69.4908903
  57.2456993   3.0891673  70.0258903  57.4966993   3.5291673  69.4268903
  50.3516993   7.8301673  75.4998903  51.1076993   8.1791673  75.7578903
  50.5286993   6.9771673  75.4428903  50.4896993   7.7551673  75.5298903
  54.0966993   4.3251673  63.8768903  54.9476993   4.2451673  63.7038903
  53.7396993   3.6431673  63.4648903  54.1696993   4.2121673  63.7898903
  52.8636993  11.0501673  65.1138903  52.1906993  10.5521673  64.8688903
  53.2666993  11.2351673  64.3628903  52.8236993  11.0041673  64.9668903
  56.4646993   4.3321673  62.1118903  57.1776993   4.8271673  62.2018903
  56.6866993   3.7651673  61.4858903  56.6026993   4.3211673  62.0328903
  50.6206993   5.9751673  65.4318903  49.9536993   6.4631673  65.7078903
  51.3006993   6.5201673  65.4608903  50.6226993   6.1271673  65.4768903
  50.6866993   2.6591673  60.5348903  50.5016993   1.8201673  60.6868903
  51.3456993   2.6231673  59.9648903  50.7566993   2.5301673  60.4728903
  50.8586993   6.8231673  60.1098903  51.4106993   7.3921673  60.4738903
  50.6266993   6.3081673  60.7748903  50.9056993   6.8311673  60.2618903
  55.0626993   5.8231673  67.1988903  55.5296993   6.1121673  67.8768903
  55.6346993   5.3451673  66.7448903  55.2166993   5.7951673  67.2318903
  50.6886993   5.2721673  57.7378903  51.4446993   4.8401673  57.7958903
  50.7036993   5.8041673  58.4288903  50.8026993   5.2871673  57.8488903
  51.6286993   3.4931673  65.7428903  52.0596993   3.3641673  64.9958903
  51.4236993   4.3411673  65.7168903  51.6616993   3.5991673  65.6288903
  55.7126993   7.0091673  64.0248903  55.8386993   7.8521673  64.2118903
  56.3806993   6.6101673  64.4208903  55.8306993   7.0751673  64.1108903
  59.0246993  10.2331673  68.4858903  58.7476993   9.5921673  67.9628903
  58.8166993  10.9591673  68.0478903  58.9536993  10.2461673  68.3438903
  52.7236993   2.8111673  74.6528903  52.6866993   3.3121673  73.9388903
  53.0546993   2.0591673  74.3578903  52.7666993   2.7731673  74.5038903
  58.6226993   7.8611673  74.0878903  58.9766993   7.6831673  74.8648903
  58.1866993   7.1321673  73.8888903  58.6106993   7.7271673  74.1738903
  56.7056993  10.3761673  60.6728903  56.5586993   9.6001673  61.0438903
  57.3946993  10.2291673  60.1578903  56.7856993  10.2391673  60.6518903
  58.9976993   9.8921673  59.0748903  59.6196993  10.0551673  59.6648903
  59.0336993  10.5831673  58.5428903  59.0946993  10.0181673  59.0838903
  59.4116993   3.8151673  65.7598903  58.5646993   3.6211673  65.8408903
  59.7356993   3.6501673  66.5528903  59.3336993   3.7621673  65.8888903
  56.1636993  10.5451673  56.6458903  56.6026993   9.8481673  56.9338903
  56.3706993  11.1691673  57.2188903  56.2596993  10.5341673  56.7728903
  53.2596993   3.5081673  68.0758903  53.9816993   3.9961673  68.0388903
  52.9896993   3.4781673  67.2468903  53.3266993   3.5761673  67.9478903
  52.6546993   4.5601673  72.3538903  52.2336993   4.0421673  71.7928903
  52.3026993   5.3461673  72.2108903  52.5406993   4.6001673  72.2498903
  57.3936993   6.3711673  68.9718903  57.0956993   6.9631673  69.5388903
  57.4486993   6.8131673  68.2228903  57.3576993   6.5241673  68.9448903
  55.3726993   5.3211673  72.3698903  54.5666993   5.0311673  72.5368903
  55.2836993   6.1891673  72.3758903  55.2406993   5.4061673  72.3948903
  59.9096993   2.7941673  68.4628903  60.3856993   3.1681673  69.0908903
  59.0866993   2.9281673  68.7218903  59.8586993   2.8691673  68.5938903
  59.1736993  10.1871673  63.6908903  59.7196993  10.8661673  63.7448903
  58.8236993  10.2691673  62.8958903  59.2026993  10.3001673  63.5808903
  57.3566993   8.4151673  67.0798903  56.7326993   8.9971673  66.8978903
  57.6046993   8.1291673  66.2938903  57.3006993   8.4591673  66.9368903
  58.9506993   3.1911673  56.9948903  58.1456993   3.0141673  56.7098903
  58.9176993   4.0421673  57.1868903  58.8266993   3.2901673  56.9818903
  60.0096993  10.0641673  72.9598903  60.4876993   9.4641673  72.5438903
  59.6586993   9.6211673  73.6248903  60.0286993   9.9101673  72.9968903
  60.0686993   5.2831673  71.9798903  59.2736993   5.2191673  72.3308903
  60.1396993   6.1301673  71.7848903  59.9616993   5.3981673  72.0028903
  55.8986993  11.4901673  67.2968903  55.9096993  11.5491673  68.1668903
  55.4736993  10.7431673  67.1468903  55.8376993  11.3881673  67.4028903
  52.6626993  10.9881673  72.7388903  52.0086993  10.4191673  72.8368903
  52.2876993  11.7611673  72.8898903  52.5106993  11.0181673  72.7758903
  51.2056993   3.0701673  70.3668903  51.5256993   3.2891673  69.5858903
  51.1056993   2.2051673  70.3118903  51.2376993   2.9751673  70.2438903
  56.6496993   7.7111673  58.0988903  57.0906993   7.7911673  58.8468903
  55.8446993   7.4951673  58.3568903  56.5956993   7.6911673  58.2478903
  55.9686993   2.3621673  71.7518903  55.5726993   3.1361673  71.8268903
  55.5626993   1.9891673  71.0758903  55.8506993   2.4211673  71.6628903
  53.9786993   6.7811673  58.6998903  53.7346993   6.4741673  59.4798903
  53.9456993   6.0781673  58.1838903  53.9376993   6.6321673  58.7388903
  56.7976993   5.0261673  57.4428903  55.9796993   4.7581673  57.5828903
  56.7696993   5.8781673  57.6278903  56.6726993   5.1131673  57.4908903
  56.4386993  10.7721673  73.0278903  56.4796993  10.8981673  73.8908903
  57.0896993  10.2121673  72.8718903  56.5406993  10.7081673  73.1328903
  54.0316993   9.1551673  74.3878903  54.6266993   9.5861673  74.8598903
  53.6676993   9.7791673  73.8988903  54.0656993   9.3111673  74.3848903
  51.9586993   7.1441673  71.3168903  51.3846993   7.5601673  71.8258903
  52.6916993   7.6091673  71.4118903  51.9826993   7.2741673  71.4058903
  53.7446993  10.4111673  60.0918903  53.5996993  10.5671673  59.2458903
  54.6106993  10.4901673  60.1698903  53.8516993  10.4461673  59.9788903
  57.9116993   2.8081673  59.8198903  58.0116993   2.9471673  58.9648903
  58.7296993   2.7481673  60.1158903  58.0466993   2.8191673  59.7368903
  54.4316993   9.2261673  66.5688903  54.3526993   8.4161673  66.2528903
  53.9876993   9.7131673  65.9968903  54.3546993   9.1781673  66.4378903
  60.0326993   5.3451673  59.0518903  60.7496993   4.9981673  58.6958903
  59.9986993   6.1451673  58.7038903  60.1336993   5.4121673  58.9478903
  52.0036993  11.4701673  70.1498903  52.4966993  11.4141673  70.8678903
  52.1916993  10.7371673  69.7148903  52.1046993  11.3531673  70.1918903
  51.1196993   5.0421673  43.4176493  50.6786993   5.1601673  44.1606493
  50.8366993   4.2671673  43.1326493  51.0126993   4.9451673  43.4856493
  54.0016993   4.0971673  38.5966493  53.6096993   3.7261673  37.9106493
  53.9216993   3.4991673  39.2256493  53.9316993   3.9541673  38.5876493
  53.6286993   5.7381673  42.4966493  54.2366993   5.5681673  43.0996493
  52.8776993   5.5981673  42.9176493  53.6076993   5.6921673  42.6476493
  52.5196993   8.8291673  38.5736493  52.9866993   8.9131673  37.8416493
  52.9746993   8.2511673  39.0426493  52.6556993   8.7561673  38.5346493
  51.0596993   7.7771673  49.6726493  51.1886993   7.4971673  50.4886493
  50.4496993   7.2361673  49.3636493  50.9886993   7.6561673  49.7476493
  57.6336993   5.3021673  54.7396493  57.3976993   5.2991673  55.5796493
  56.8856993   5.1541673  54.3156493  57.4876993   5.2791673  54.8006493
  52.5056993   2.2981673  43.8746493  52.0436993   1.9061673  43.2476493
  53.2056993   1.7851673  43.9666493  52.5406993   2.1651673  43.7956493
  57.6156993   8.4941673  52.0026493  57.7536993   9.2541673  51.5956493
  58.4066993   8.1291673  52.0296493  57.7526993   8.5531673  51.9466493
  58.7106993   6.3791673  46.5076493  59.0586993   5.5801673  46.5376493
  59.3756993   6.8831673  46.2526493  58.8606993   6.3351673  46.4746493
  58.7676993   5.8281673  42.7186493  59.0986993   5.1841673  43.2046493
  59.0076993   5.6171673  41.9076493  58.8516993   5.7021673  42.6706493
  50.8716993   9.7691673  44.7876493  50.2796993  10.3271673  44.4746493
  51.2976993   9.5001673  44.0756493  50.8476993   9.8111673  44.6366493
  56.7116993   7.6131673  42.2676493  56.1326993   7.3381673  42.8596493
  57.3356993   7.0041673  42.2926493  56.7186993   7.4831673  42.3586493
  52.4166993   8.4391673  42.7186493  53.0726993   7.8641673  42.7336493
  52.8056993   9.1881673  42.4976493  52.5716993   8.4641673  42.6886493
  53.2346993   6.9261673  46.2186493  53.6576993   6.5701673  45.5446493
  53.5586993   6.5041673  46.9106493  53.3446993   6.8111673  46.2216493
  56.4656993   9.7781673  45.5146493  57.3096993   9.8821673  45.3196493
  56.1686993  10.5961673  45.5826493  56.5466993   9.9141673  45.4956493
  55.4636993  10.9971673  51.2546493  55.7556993  10.9301673  52.0746493
  54.8376993  10.3921673  51.2096493  55.4146993  10.8981673  51.3696493
  59.8536993   7.6851673  38.5386493  59.6726993   8.2301673  39.1956493
  60.6196993   7.9751673  38.2376493  59.9396993   7.8091673  38.5916493
  53.4566993   9.1591673  50.3766493  52.7586993   8.6511673  50.5026493
  53.7166993   8.9541673  49.5686493  53.3916993   9.0541673  50.2756493
  54.8176993   8.0101673  52.9436493  55.6586993   8.0731673  52.7216493
  54.7806993   8.4071673  53.7196493  54.9366993   8.0781673  53.0256493
  56.7806993   3.5211673  47.6926493  56.9526993   3.3111673  48.5216493
  56.1256993   2.9871673  47.4766493  56.7096993   3.4111673  47.7836493
  57.5306993   3.4591673  50.2826493  57.5836993   4.3061673  50.4846493
  57.2456993   3.0891673  51.0196493  57.4966993   3.5291673  50.4206493
  50.3516993   7.8301673  56.4936493  51.1076993   8.1791673  56.7516493
  50.5286993   6.9771673  56.4366493  50.4896993   7.7551673  56.5236493
  54.0966993   4.3251673  44.8706493  54.9476993   4.2451673  44.6976493
  53.7396993   3.6431673  44.4586493  54.1696993   4.2121673  44.7836493
  52.8636993  11.0501673  46.1076493  52.1906993  10.5521673  45.8626493
  53.2666993  11.2351673  45.3566493  52.8236993  11.0041673  45.9606493
  56.4646993   4.3321673  43.1056493  57.1776993   4.8271673  43.1956493
  56.6866993   3.7651673  42.4796493  56.6026993   4.3211673  43.0266493
  50.6206993   5.9751673  46.4256493  49.9536993   6.4631673  46.7016493
  51.3006993   6.5201673  46.4546493  50.6226993   6.1271673  46.4706493
  50.6866993   2.6591673  41.5286493  50.5016993   1.8201673  41.6806493
  51.3456993   2.6231673  40.9586493  50.7566993   2.5301673  41.4666493
  50.8586993   6.8231673  41.1036493  51.4106993   7.3921673  41.4676493
  50.6266993   6.3081673  41.7686493  50.9056993   6.8311673  41.2556493
  55.0626993   5.8231673  48.1926493  55.5296993   6.1121673  48.8706493
  55.6346993   5.3451673  47.7386493  55.2166993   5.7951673  48.2256493
  50.6886993   5.2721673  38.7316493  51.4446993   4.8401673  38.7896493
  50.7036993   5.8041673  39.4226493  50.8026993   5.2871673  38.8426493
  51.6286993   3.4931673  46.7366493  52.0596993   3.3641673  45.9896493
  51.4236993   4.3411673  46.7106493  51.6616993   3.5991673  46.6226493
  55.7126993   7.0091673  45.0186493  55.8386993   7.8521673  45.2056493
  56.3806993   6.6101673  45.4146493  55.8306993   7.0751673  45.1046493
  59.0246993  10.2331673  49.4796493  58.7476993   9.5921673  48.9566493
  58.8166993  10.9591673  49.0416493  58.9536993  10.2461673  49.3376493
  52.7236993   2.8111673  55.6466493  52.6866993   3.3121673  54.9326493
  53.0546993   2.0591673  55.3516493  52.7666993   2.7731673  55.4976493
  58.6226993   7.8611673  55.0816493  58.9766993   7.6831673  55.8586493
  58.1866993   7.1321673  54.8826493  58.6106993   7.7271673  55.1676493
  56.7056993  10.3761673  41.6666493  56.5586993   9.6001673  42.0376493
  57.3946993  10.2291673  41.1516493  56.7856993  10.2391673  41.6456493
  58.9976993   9.8921673  40.0686493  59.6196993  10.0551673  40.6586493
  59.0336993  10.5831673  39.5366493  59.0946993  10.0181673  40.0776493
  59.4116993   3.8151673  46.7536493  58.5646993   3.6211673  46.8346493
  59.7356993   3.6501673  47.5466493  59.3336993   3.7621673  46.8826493
  56.1636993  10.5451673  37.6396493  56.6026993   9.8481673  37.9276493
  56.3706993  11.1691673  38.2126493  56.2596993  10.5341673  37.7666493
  53.2596993   3.5081673  49.0696493  53.9816993   3.9961673  49.0326493
  52.9896993   3.4781673  48.2406493  53.3266993   3.5761673  48.9416493
  52.6546993   4.5601673  53.3476493  52.2336993   4.0421673  52.7866493
  52.3026993   5.3461673  53.2046493  52.5406993   4.6001673  53.2436493
  57.3936993   6.3711673  49.9656493  57.0956993   6.9631673  50.5326493
  57.4486993   6.8131673  49.2166493  57.3576993   6.5241673  49.9386493
  55.3726993   5.3211673  53.3636493  54.5666993   5.0311673  53.5306493
  55.2836993   6.1891673  53.3696493  55.2406993   5.4061673  53.3886493
  59.9096993   2.7941673  49.4566493  60.3856993   3.1681673  50.0846493
  59.0866993   2.9281673  49.7156493  59.8586993   2.8691673  49.5876493
  59.1736993  10.1871673  44.6846493  59.7196993  10.8661673  44.7386493
  58.8236993  10.2691673  43.8896493  59.2026993  10.3001673  44.5746493
  57.3566993   8.4151673  48.0736493  56.7326993   8.9971673  47.8916493
  57.6046993   8.1291673  47.2876493  57.3006993   8.4591673  47.9306493
  58.9506993   3.1911673  37.9886493  58.1456993   3.0141673  37.7036493
  58.9176993   4.0421673  38.1806493  58.8266993   3.2901673  37.9756493
  60.0096993  10.0641673  53.9536493  60.4876993   9.4641673  53.5376493
  59.6586993   9.6211673  54.6186493  60.0286993   9.9101673  53.9906493
  60.0686993   5.2831673  52.9736493  59.2736993   5.2191673  53.3246493
  60.1396993   6.1301673  52.7786493  59.9616993   5.3981673  52.9966493
  55.8986993  11.4901673  48.2906493  55.9096993  11.5491673  49.1606493
  55.4736993  10.7431673  48.1406493  55.8376993  11.3881673  48.3966493
  52.6626993  10.9881673  53.7326493  52.0086993  10.4191673  53.8306493
  52.2876993  11.7611673  53.8836493  52.5106993  11.0181673  53.7696493
  51.2056993   3.0701673  51.3606493  51.5256993   3.2891673  50.5796493
  51.1056993   2.2051673  51.3056493  51.2376993   2.9751673  51.2376493
  56.6496993   7.7111673  39.0926493  57.0906993   7.7911673  39.8406493
  55.8446993   7.4951673  39.3506493  56.5956993   7.6911673  39.2416493
  55.9686993   2.3621673  52.7456493  55.5726993   3.1361673  52.8206493
  55.5626993   1.9891673  52.0696493  55.8506993   2.4211673  52.6566493
  53.9786993   6.7811673  39.6936493  53.7346993   6.4741673  40.4736493
  53.9456993   6.0781673  39.1776493  53.9376993   6.6321673  39.7326493
  56.7976993   5.0261673  38.4366493  55.9796993   4.7581673  38.5766493
  56.7696993   5.8781673  38.6216493  56.6726993   5.1131673  38.4846493
  56.4386993  10.7721673  54.0216493  56.4796993  10.8981673  54.8846493
  57.0896993  10.2121673  53.8656493  56.5406993  10.7081673  54.1266493
  54.0316993   9.1551673  55.3816493  54.6266993   9.5861673  55.8536493
  53.6676993   9.7791673  54.8926493  54.0656993   9.3111673  55.3786493
  51.9586993   7.1441673  52.3106493  51.3846993   7.5601673  52.8196493
  52.6916993   7.6091673  52.4056493  51.9826993   7.2741673  52.3996493
  53.7446993  10.4111673  41.0856493  53.5996993  10.5671673  40.2396493
  54.6106993  10.4901673  41.1636493  53.8516993  10.4461673  40.9726493
  57.9116993   2.8081673  40.8136493  58.0116993   2.9471673  39.9586493
  58.7296993   2.7481673  41.1096493  58.0466993   2.8191673  40.7306493
  54.4316993   9.2261673  47.5626493  54.3526993   8.4161673  47.2466493
  53.9876993   9.7131673  46.9906493  54.3546993   9.1781673  47.4316493
  60.0326993   5.3451673  40.0456493  60.7496993   4.9981673  39.6896493
  59.9986993   6.1451673  39.6976493  60.1336993   5.4121673  39.9416493
  52.0036993  11.4701673  51.1436493  52.4966993  11.4141673  51.8616493
  52.1916993  10.7371673  50.7086493  52.1046993  11.3531673  51.1856493
  51.1196993   5.0421673  24.4114083  50.6786993   5.1601673  25.1544083
  50.8366993   4.2671673  24.1264083  51.0126993   4.9451673  24.4794083
  54.0016993   4.0971673  19.5904083  53.6096993   3.7261673  18.9044083
  53.9216993   3.4991673  20.2194083  53.9316993   3.9541673  19.5814083
  53.6286993   5.7381673  23.4904083  54.2366993   5.5681673  24.0934083
  52.8776993   5.5981673  23.9114083  53.6076993   5.6921673  23.6414083
  52.5196993   8.8291673  19.5674083  52.9866993   8.9131673  18.8354083
  52.9746993   8.2511673  20.0364083  52.6556993   8.7561673  19.5284083
  51.0596993   7.7771673  30.6664083  51.1886993   7.4971673  31.4824083
  50.4496993   7.2361673  30.3574083  50.9886993   7.6561673  30.7414083
  57.6336993   5.3021673  35.7334083  57.3976993   5.2991673  36.5734083
  56.8856993   5.1541673  35.3094083  57.4876993   5.2791673  35.7944083
  52.5056993   2.2981673  24.8684083  52.0436993   1.9061673  24.2414083
  53.2056993   1.7851673  24.9604083  52.5406993   2.1651673  24.7894083
  57.6156993   8.4941673  32.9964083  57.7536993   9.2541673  32.5894083
  58.4066993   8.1291673  33.0234083  57.7526993   8.5531673  32.9404083
  58.7106993   6.3791673  27.5014083  59.0586993   5.5801673  27.5314083
  59.3756993   6.8831673  27.2464083  58.8606993   6.3351673  27.4684083
  58.7676993   5.8281673  23.7124083  59.0986993   5.1841673  24.1984083
  59.0076993   5.6171673  22.9014083  58.8516993   5.7021673  23.6644083
  50.8716993   9.7691673  25.7814083  50.2796993  10.3271673  25.4684083
  51.2976993   9.5001673  25.0694083  50.8476993   9.8111673  25.6304083
  56.7116993   7.6131673  23.2614083  56.1326993   7.3381673  23.8534083
  57.3356993   7.0041673  23.2864083  56.7186993   7.4831673  23.3524083
  52.4166993   8.4391673  23.7124083  53.0726993   7.8641673  23.7274083
  52.8056993   9.1881673  23.4914083  52.5716993   8.4641673  23.6824083
  53.2346993   6.9261673  27.2124083  53.6576993   6.5701673  26.5384083
  53.5586993   6.5041673  27.9044083  53.3446993   6.8111673  27.2154083
  56.4656993   9.7781673  26.5084083  57.3096993   9.8821673  26.3134083
  56.1686993  10.5961673  26.5764083  56.5466993   9.9141673  26.4894083
  55.4636993  10.9971673  32.2484083  55.7556993  10.9301673  33.0684083
  54.8376993  10.3921673  32.2034083  55.4146993  10.8981673  32.3634083
  59.8536993   7.6851673  19.5324083  59.6726993   8.2301673  20.1894083
  60.6196993   7.9751673  19.2314083  59.9396993   7.8091673  19.5854083
  53.4566993   9.1591673  31.3704083  52.7586993   8.6511673  31.4964083
  53.7166993   8.9541673  30.5624083  53.3916993   9.0541673  31.2694083
  54.8176993   8.0101673  33.9374083  55.6586993   8.0731673  33.7154083
  54.7806993   8.4071673  34.7134083  54.9366993   8.0781673  34.0194083
  56.7806993   3.5211673  28.6864083  56.9526993   3.3111673  29.5154083
  56.1256993   2.9871673  28.4704083  56.7096993   3.4111673  28.7774083
  57.5306993   3.4591673  31.2764083  57.5836993   4.3061673  31.4784083
  57.2456993   3.0891673  32.0134083  57.4966993   3.5291673  31.4144083
  50.3516993   7.8301673  37.4874083  51.1076993   8.1791673  37.7454083
  50.5286993   6.9771673  37.4304083  50.4896993   7.7551673  37.5174083
  54.0966993   4.3251673  25.8644083  54.9476993   4.2451673  25.6914083
  53.7396993   3.6431673  25.4524083  54.1696993   4.2121673  25.7774083
  52.8636993  11.0501673  27.1014083  52.1906993  10.5521673  26.8564083
  53.2666993  11.2351673  26.3504083  52.8236993  11.0041673  26.9544083
  56.4646993   4.3321673  24.0994083  57.1776993   4.8271673  24.1894083
  56.6866993   3.7651673  23.4734083  56.6026993   4.3211673  24.0204083
  50.6206993   5.9751673  27.4194083  49.9536993   6.4631673  27.6954083
  51.3006993   6.5201673  27.4484083  50.6226993   6.1271673  27.4644083
  50.6866993   2.6591673  22.5224083  50.5016993   1.8201673  22.6744083
  51.3456993   2.6231673  21.9524083  50.7566993   2.5301673  22.4604083
  50.8586993   6.8231673  22.0974083  51.4106993   7.3921673  22.4614083
  50.6266993   6.3081673  22.7624083  50.9056993   6.8311673  22.2494083
  55.0626993   5.8231673  29.1864083  55.5296993   6.1121673  29.8644083
  55.6346993   5.3451673  28.7324083  55.2166993   5.7951673  29.2194083
  50.6886993   5.2721673  19.7254083  51.4446993   4.8401673  19.7834083
  50.7036993   5.8041673  20.4164083  50.8026993   5.2871673  19.8364083
  51.6286993   3.4931673  27.7304083  52.0596993   3.3641673  26.9834083
  51.4236993   4.3411673  27.7044083  51.6616993   3.5991673  27.6164083
  55.7126993   7.0091673  26.0124083  55.8386993   7.8521673  26.1994083
  56.3806993   6.6101673  26.4084083  55.8306993   7.0751673  26.0984083
  59.0246993  10.2331673  30.4734083  58.7476993   9.5921673  29.9504083
  58.8166993  10.9591673  30.0354083  58.9536993  10.2461673  30.3314083
  52.7236993   2.8111673  36.6404083  52.6866993   3.3121673  35.9264083
  53.0546993   2.0591673  36.3454083  52.7666993   2.7731673  36.4914083
  58.6226993   7.8611673  36.0754083  58.9766993   7.6831673  36.8524083
  58.1866993   7.1321673  35.8764083  58.6106993   7.7271673  36.1614083
  56.7056993  10.3761673  22.6604083  56.5586993   9.6001673  23.0314083
  57.3946993  10.2291673  22.1454083  56.7856993  10.2391673  22.6394083
  58.9976993   9.8921673  21.0624083  59.6196993  10.0551673  21.6524083
  59.0336993  10.5831673  20.5304083  59.0946993  10.0181673  21.0714083
  59.4116993   3.8151673  27.7474083  58.5646993   3.6211673  27.8284083
  59.7356993   3.6501673  28.5404083  59.3336993   3.7621673  27.8764083
  56.1636993  10.5451673  18.6334083  56.6026993   9.8481673  18.9214083
  56.3706993  11.1691673  19.2064083  56.2596993  10.5341673  18.7604083
  53.2596993   3.5081673  30.0634083  53.9816993   3.9961673  30.0264083
  52.9896993   3.4781673  29.2344083  53.3266993   3.5761673  29.9354083
  52.6546993   4.5601673  34.3414083  52.2336993   4.0421673  33.7804083
  52.3026993   5.3461673  34.1984083  52.5406993   4.6001673  34.2374083
  57.3936993   6.3711673  30.9594083  57.0956993   6.9631673  31.5264083
  57.4486993   6.8131673  30.2104083  57.3576993   6.5241673  30.9324083
  55.3726993   5.3211673  34.3574083  54.5666993   5.0311673  34.5244083
  55.2836993   6.1891673  34.3634083  55.2406993   5.4061673  34.3824083
  59.9096993   2.7941673  30.4504083  60.3856993   3.1681673  31.0784083
  59.0866993   2.9281673  30.7094083  59.8586993   2.8691673  30.5814083
  59.1736993  10.1871673  25.6784083  59.7196993  10.8661673  25.7324083
  58.8236993  10.2691673  24.8834083  59.2026993  10.3001673  25.5684083
  57.3566993   8.4151673  29.0674083  56.7326993   8.9971673  28.8854083
  57.6046993   8.1291673  28.2814083  57.3006993   8.4591673  28.9244083
  58.9506993   3.1911673  18.9824083  58.1456993   3.0141673  18.6974083
  58.9176993   4.0421673  19.1744083  58.8266993   3.2901673  18.9694083
  60.0096993  10.0641673  34.9474083  60.4876993   9.4641673  34.5314083
  59.6586993   9.6211673  35.6124083  60.0286993   9.9101673  34.9844083
  60.0686993   5.2831673  33.9674083  59.2736993   5.2191673  34.3184083
  60.1396993   6.1301673  33.7724083  59.9616993   5.3981673  33.9904083
  55.8986993  11.4901673  29.2844083  55.9096993  11.5491673  30.1544083
  55.4736993  10.7431673  29.1344083  55.8376993  11.3881673  29.3904083
  52.6626993  10.9881673  34.7264083  52.0086993  10.4191673  34.8244083
  52.2876993  11.7611673  34.8774083  52.5106993  11.0181673  34.7634083
  51.2056993   3.0701673  32.3544083  51.5256993   3.2891673  31.5734083
  51.1056993   2.2051673  32.2994083  51.2376993   2.9751673  32.2314083
  56.6496993   7.7111673  20.0864083  57.0906993   7.7911673  20.8344083
  55.8446993   7.4951673  20.3444083  56.5956993   7.6911673  20.2354083
  55.9686993   2.3621673  33.7394083  55.5726993   3.1361673  33.8144083
  55.5626993   1.9891673  33.0634083  55.8506993   2.4211673  33.6504083
  53.9786993   6.7811673  20.6874083  53.7346993   6.4741673  21.4674083
  53.9456993   6.0781673  20.1714083  53.9376993   6.6321673  20.7264083
  56.7976993   5.0261673  19.4304083  55.9796993   4.7581673  19.5704083
  56.7696993   5.8781673  19.6154083  56.6726993   5.1131673  19.4784083
  56.4386993  10.7721673  35.0154083  56.4796993  10.8981673  35.8784083
  57.0896993  10.2121673  34.8594083  56.5406993  10.7081673  35.1204083
  54.0316993   9.1551673  36.3754083  54.6266993   9.5861673  36.8474083
  53.6676993   9.7791673  35.8864083  54.0656993   9.3111673  36.3724083
  51.9586993   7.1441673  33.3044083  51.3846993   7.5601673  33.8134083
  52.6916993   7.6091673  33.3994083  51.9826993   7.2741673  33.3934083
  53.7446993  10.4111673  22.0794083  53.5996993  10.5671673  21.2334083
  54.6106993  10.4901673  22.1574083  53.8516993  10.4461673  21.9664083
  57.9116993   2.8081673  21.8074083  58.0116993   2.9471673  20.9524083
  58.7296993   2.7481673  22.1034083  58.0466993   2.8191673  21.7244083
  54.4316993   9.2261673  28.5564083  54.3526993   8.4161673  28.2404083
  53.9876993   9.7131673  27.9844083  54.3546993   9.1781673  28.4254083
  60.0326993   5.3451673  21.0394083  60.7496993   4.9981673  20.6834083
  59.9986993   6.1451673  20.6914083  60.1336993   5.4121673  20.9354083
  52.0036993  11.4701673  32.1374083  52.4966993  11.4141673  32.8554083
  52.1916993  10.7371673  31.7024083  52.1046993  11.3531673  32.1794083
  51.1196993   5.0421673   5.4051673  50.6786993   5.1601673   6.1481673
  50.8366993   4.2671673   5.1201673  51.0126993   4.9451673   5.4731673
  53.6286993   5.7381673   4.4841673  54.2366993   5.5681673   5.0871673
  52.8776993   5.5981673   4.9051673  53.6076993   5.6921673   4.6351673
  51.0596993   7.7771673  11.6601673  51.1886993   7.4971673  12.4761673
  50.4496993   7.2361673  11.3511673  50.9886993   7.6561673  11.7351673
  57.6336993   5.3021673  16.7271673  57.3976993   5.2991673  17.5671673
  56.8856993   5.1541673  16.3031673  57.4876993   5.2791673  16.7881673
  52.5056993   2.2981673   5.8621673  52.0436993   1.9061673   5.2351673
  53.2056993   1.7851673   5.9541673  52.5406993   2.1651673   5.7831673
  57.6156993   8.4941673  13.9901673  57.7536993   9.2541673  13.5831673
  58.4066993   8.1291673  14.0171673  57.7526993   8.5531673  13.9341673
  58.7106993   6.3791673   8.4951673  59.0586993   5.5801673   8.5251673
  59.3756993   6.8831673   8.2401673  58.8606993   6.3351673   8.4621673
  58.7676993   5.8281673   4.7061673  59.0986993   5.1841673   5.1921673
  59.0076993   5.6171673   3.8951673  58.8516993   5.7021673   4.6581673
  50.8716993   9.7691673   6.7751673  50.2796993  10.3271673   6.4621673
  51.2976993   9.5001673   6.0631673  50.8476993   9.8111673   6.6241673
  56.7116993   7.6131673   4.2551673  56.1326993   7.3381673   4.8471673
  57.3356993   7.0041673   4.2801673  56.7186993   7.4831673   4.3461673
  52.4166993   8.4391673   4.7061673  53.0726993   7.8641673   4.7211673
  52.8056993   9.1881673   4.4851673  52.5716993   8.4641673   4.6761673
  53.2346993   6.9261673   8.2061673  53.6576993   6.5701673   7.5321673
  53.5586993   6.5041673   8.8981673  53.3446993   6.8111673   8.2091673
  56.4656993   9.7781673   7.5021673  57.3096993   9.8821673   7.3071673
  56.1686993  10.5961673   7.5701673  56.5466993   9.9141673   7.4831673
  55.4636993  10.9971673  13.2421673  55.7556993  10.9301673  14.0621673
  54.8376993  10.3921673  13.1971673  55.4146993  10.8981673  13.3571673
  53.4566993   9.1591673  12.3641673  52.7586993   8.6511673  12.4901673
  53.7166993   8.9541673  11.5561673  53.3916993   9.0541673  12.2631673
  54.8176993   8.0101673  14.9311673  55.6586993   8.0731673  14.7091673
  54.7806993   8.4071673  15.7071673  54.9366993   8.0781673  15.0131673
  56.7806993   3.5211673   9.6801673  56.9526993   3.3111673  10.5091673
  56.1256993   2.9871673   9.4641673  56.7096993   3.4111673   9.7711673
  57.5306993   3.4591673  12.2701673  57.5836993   4.3061673  12.4721673
  57.2456993   3.0891673  13.0071673  57.4966993   3.5291673  12.4081673
  50.3516993   7.8301673  18.4811673  51.1076993   8.1791673  18.7391673
  50.5286993   6.9771673  18.4241673  50.4896993   7.7551673  18.5111673
  54.0966993   4.3251673   6.8581673  54.9476993   4.2451673   6.6851673
  53.7396993   3.6431673   6.4461673  54.1696993   4.2121673   6.7711673
  52.8636993  11.0501673   8.0951673  52.1906993  10.5521673   7.8501673
  53.2666993  11.2351673   7.3441673  52.8236993  11.0041673   7.9481673
  56.4646993   4.3321673   5.0931673  57.1776993   4.8271673   5.1831673
  56.6866993   3.7651673   4.4671673  56.6026993   4.3211673   5.0141673
  50.6206993   5.9751673   8.4131673  49.9536993   6.4631673   8.6891673
  51.3006993   6.5201673   8.4421673  50.6226993   6.1271673   8.4581673
  50.6866993   2.6591673   3.5161673  50.5016993   1.8201673   3.6681673
  51.3456993   2.6231673   2.9461673  50.7566993   2.5301673   3.4541673
  50.8586993   6.8231673   3.0911673  51.4106993   7.3921673   3.4551673
  50.6266993   6.3081673   3.7561673  50.9056993   6.8311673   3.2431673
  55.0626993   5.8231673  10.1801673  55.5296993   6.1121673  10.8581673
  55.6346993   5.3451673   9.7261673  55.2166993   5.7951673  10.2131673
  51.6286993   3.4931673   8.7241673  52.0596993   3.3641673   7.9771673
  51.4236993   4.3411673   8.6981673  51.6616993   3.5991673   8.6101673
  55.7126993   7.0091673   7.0061673  55.8386993   7.8521673   7.1931673
  56.3806993   6.6101673   7.4021673  55.8306993   7.0751673   7.0921673
  59.0246993  10.2331673  11.4671673  58.7476993   9.5921673  10.9441673
  58.8166993  10.9591673  11.0291673  58.9536993  10.2461673  11.3251673
  52.7236993   2.8111673  17.6341673  52.6866993   3.3121673  16.9201673
  53.0546993   2.0591673  17.3391673  52.7666993   2.7731673  17.4851673
  58.6226993   7.8611673  17.0691673  58.9766993   7.6831673  17.8461673
  58.1866993   7.1321673  16.8701673  58.6106993   7.7271673  17.1551673
  56.7056993  10.3761673   3.6541673  56.5586993   9.6001673   4.0251673
  57.3946993  10.2291673   3.1391673  56.7856993  10.2391673   3.6331673
  59.4116993   3.8151673   8.7411673  58.5646993   3.6211673   8.8221673
  59.7356993   3.6501673   9.5341673  59.3336993   3.7621673   8.8701673
  53.2596993   3.5081673  11.0571673  53.9816993   3.9961673  11.0201673
  52.9896993   3.4781673  10.2281673  53.3266993   3.5761673  10.9291673
  52.6546993   4.5601673  15.3351673  52.2336993   4.0421673  14.7741673
  52.3026993   5.3461673  15.1921673  52.5406993   4.6001673  15.2311673
  57.3936993   6.3711673  11.9531673  57.0956993   6.9631673  12.5201673
  57.4486993   6.8131673  11.2041673  57.3576993   6.5241673  11.9261673
  55.3726993   5.3211673  15.3511673  54.5666993   5.0311673  15.5181673
  55.2836993   6.1891673  15.3571673  55.2406993   5.4061673  15.3761673
  59.9096993   2.7941673  11.4441673  60.3856993   3.1681673  12.0721673
  59.0866993   2.9281673  11.7031673  59.8586993   2.8691673  11.5751673
  59.1736993  10.1871673   6.6721673  59.7196993  10.8661673   6.7261673
  58.8236993  10.2691673   5.8771673  59.2026993  10.3001673   6.5621673
  57.3566993   8.4151673  10.0611673  56.7326993   8.9971673   9.8791673
  57.6046993   8.1291673   9.2751673  57.3006993   8.4591673   9.9181673
  60.0096993  10.0641673  15.9411673  60.4876993   9.4641673  15.5251673
  59.6586993   9.6211673  16.6061673  60.0286993   9.9101673  15.9781673
  60.0686993   5.2831673  14.9611673  59.2736993   5.2191673  15.3121673
  60.1396993   6.1301673  14.7661673  59.9616993   5.3981673  14.9841673
  55.8986993  11.4901673  10.2781673  55.9096993  11.5491673  11.1481673
  55.4736993  10.7431673  10.1281673  55.8376993  11.3881673  10.3841673
  52.6626993  10.9881673  15.7201673  52.0086993  10.4191673  15.8181673
  52.2876993  11.7611673  15.8711673  52.5106993  11.0181673  15.7571673
  51.2056993   3.0701673  13.3481673  51.5256993   3.2891673  12.5671673
  51.1056993   2.2051673  13.2931673  51.2376993   2.9751673  13.2251673
  55.9686993   2.3621673  14.7331673  55.5726993   3.1361673  14.8081673
  55.5626993   1.9891673  14.0571673  55.8506993   2.4211673  14.6441673
  56.4386993  10.7721673  16.0091673  56.4796993  10.8981673  16.8721673
  57.0896993  10.2121673  15.8531673  56.5406993  10.7081673  16.1141673
  54.0316993   9.1551673  17.3691673  54.6266993   9.5861673  17.8411673
  53.6676993   9.7791673  16.8801673  54.0656993   9.3111673  17.3661673
  51.9586993   7.1441673  14.2981673  51.3846993   7.5601673  14.8071673
  52.6916993   7.6091673  14.3931673  51.9826993   7.2741673  14.3871673
  53.7446993  10.4111673   3.0731673  53.5996993  10.5671673   2.2271673
  54.6106993  10.4901673   3.1511673  53.8516993  10.4461673   2.9601673
  57.9116993   2.8081673   2.8011673  58.0116993   2.9471673   1.9461673
  58.7296993   2.7481673   3.0971673  58.0466993   2.8191673   2.7181673
  54.4316993   9.2261673   9.5501673  54.3526993   8.4161673   9.2341673
  53.9876993   9.7131673   8.9781673  54.3546993   9.1781673   9.4191673
  60.0326993   5.3451673   2.0331673  60.7496993   4.9981673   1.6771673
  59.9986993   6.1451673   1.6851673  60.1336993   5.4121673   1.9291673
  52.0036993  11.4701673  13.1311673  52.4966993  11.4141673  13.8491673
  52.1916993  10.7371673  12.6961673  52.1046993  11.3531673  13.1731673
  42.5768553  67.8985993  81.3031313  42.3318553  68.3865993  80.6231313
  43.4398553  67.8255993  81.2031313  42.6678553  67.9595993  81.1881313
  42.3858553  74.8145993  85.9741313  41.8618553  75.4105993  86.3371313
  42.7828553  74.4465993  86.6581313  42.3668553  74.8485993  86.1291313
  31.9978553  72.7465993  77.9371313  31.2198553  72.9085993  77.5771313
  32.0368553  71.8755993  77.9591313  31.8888553  72.6415993  77.8871313
  45.0568553  75.8815993  82.6501313  45.1368553  75.8855993  81.7811313
  44.4728553  75.2495993  82.7991313  44.9818553  75.7885993  82.5441313
  39.0458553  68.9855993  80.4581313  38.9758553  69.6625993  79.9121313
  39.7868553  68.5975993  80.2091313  39.1448553  69.0285993  80.3401313
  33.6408553  76.2105993  81.8871313  33.1788553  75.8185993  81.2601313
  34.3408553  75.6975993  81.9791313  33.6758553  76.0775993  81.8081313
  38.1488553  71.8205993  87.2341313  38.8268553  71.8385993  86.6851313
  38.1038553  70.9845993  87.4791313  38.2418553  71.6995993  87.1891313
  35.6418553  74.3105993  81.9101313  36.4588553  74.1235993  82.1531313
  35.1648553  73.6965993  82.3061313  35.6918553  74.1925993  82.0051313
  41.8708553  73.8715993  92.0701313  41.0228553  73.7725993  91.8921313
  41.8998553  74.6165993  92.5241313  41.7498553  73.9675993  92.1111313
  36.2388553  69.4045993  81.1761313  35.9428553  69.9055993  80.5261313
  37.1058553  69.4825993  81.1191313  36.3228553  69.4905993  81.0721313
  46.4288553  66.8315993  91.1841313  46.2708553  67.6005993  90.8021313
  45.6568553  66.6115993  91.5281313  46.2908553  66.9125993  91.1791313
  39.2178553  68.5465993  83.3991313  39.2908553  69.4065993  83.5281313
  39.1798553  68.4715993  82.5311313  39.2228553  68.6625993  83.2901313
  43.8908553  71.4725993  75.6981313  43.4408553  72.1535993  76.0051313
  44.0048553  70.9685993  76.4011313  43.8418553  71.4985993  75.8471313
  32.0968553  73.9715993  84.9001313  31.8408553  74.8025993  84.8251313
  31.4328553  73.5885993  85.3171313  31.9608553  74.0375993  84.9511313
  35.1258553  68.7885993  85.3911313  34.6048553  68.1605993  85.0831313
  35.7168553  68.3515993  85.8621313  35.1368553  68.6305993  85.4151313
  49.2848553  71.4455993  81.9931313  48.9388553  72.1235993  82.4191313
  48.6488553  70.8475993  82.0091313  49.1398553  71.4575993  82.0581313
  41.4078553  73.0875993  81.6141313  41.6948553  72.8555993  80.8241313
  42.1398553  73.1665993  82.0831313  41.5578553  73.0645993  81.5671313
  42.1298553  73.4265993  76.7351313  42.4108553  74.2145993  76.9841313
  41.3538553  73.5915993  76.3721313  42.0568553  73.5675993  76.7181313
  48.9598553  69.7685993  87.3621313  49.7168553  69.8405993  86.9341313
  49.0228553  68.9955993  87.7611313  49.0808553  69.6655993  87.3571313
  31.5128553  71.0665993  91.2591313  31.5088553  71.6535993  91.9051313
  32.1068553  71.3785993  90.7021313  31.5998553  71.1995993  91.2721313
  44.4958553  69.4935993  77.6051313  45.0358553  68.8115993  77.6811313
  44.5578553  69.8915993  78.3791313  44.5848553  69.4515993  77.7311313
  32.4498553  70.6615993  80.1741313  32.3358553  69.7975993  80.2051313
  31.9748553  70.9555993  80.8441313  32.3628553  70.5775993  80.2771313
  41.7538553  71.8695993  78.9191313  41.2458553  71.2075993  78.6651313
  41.8058553  72.3735993  78.2091313  41.6868553  71.8465993  78.7771313
  41.7538553  68.8105993  78.8101313  41.2988553  68.4085993  78.1841313
  42.5268553  68.9655993  78.4351313  41.8008553  68.7745993  78.6621313
  40.3518553  71.1775993  83.3321313  40.4258553  71.7455993  82.6741313
  40.4728553  71.6695993  84.0421313  40.3798553  71.3345993  83.3401313
  34.9598553  67.0005993  81.6801313  35.4958553  67.6885993  81.6701313
  34.9628553  66.7265993  80.8521313  35.0388553  67.0615993  81.5561313
  44.1438553  71.3475993  89.2201313  44.0488553  71.6665993  90.0261313
  43.5508553  70.7085993  89.1821313  44.0418553  71.2995993  89.3341313
  45.3998553  67.2915993  82.0561313  45.4488553  66.9735993  82.8671313
  45.7228553  66.6475993  81.5631313  45.4548553  67.1495993  82.1031313
  47.8638553  71.5275993  90.3641313  48.6358553  71.3025993  90.7011313
  47.3888553  71.7445993  91.0641313  47.9078553  71.5265993  90.5171313
  35.4078553  70.8105993  83.3341313  35.6798553  70.3805993  82.6261313
  35.2318553  70.1745993  83.9051313  35.4218553  70.6535993  83.3141313
  33.5488553  71.9125993  86.4161313  34.3918553  72.1325993  86.3731313
  33.1598553  72.4855993  85.8851313  33.6158553  72.0295993  86.3311313
  45.9908553  75.0425993  77.1371313  45.7708553  75.7735993  76.7151313
  45.5428553  75.0935993  77.8841313  45.8918553  75.1575993  77.1851313
  50.1778553  69.9035993  76.5901313  49.5158553  69.3355993  76.6131313
  49.9848553  70.4155993  75.9101313  50.0518553  69.8955993  76.4931313
  50.5008553  74.2815993  89.1461313  50.7158553  73.4815993  88.8701313
  49.6508553  74.3415993  88.9571313  50.4068553  74.1725993  89.0771313
  31.8218553  76.5715993  79.5411313  31.6368553  75.7325993  79.6931313
  32.4808553  76.5355993  78.9711313  31.8918553  76.4425993  79.4791313
  48.1798553  69.4615993  78.8691313  48.9258553  69.0545993  79.0681313
  48.4428553  70.1765993  78.4441313  48.3288553  69.5075993  78.8361313
  44.6338553  71.7495993  83.9421313  44.9778553  71.9015993  84.7291313
  44.1808553  71.0115993  84.0551313  44.6178553  71.6625993  84.0751313
  39.1098553  70.9695993  78.3991313  39.1078553  70.8525993  77.5341313
  38.9288553  71.8175993  78.4911313  39.0828553  71.0775993  78.2851313
  35.4628553  73.8015993  78.0331313  35.3348553  73.3535993  78.7711313
  34.8808553  73.4595993  77.4811313  35.3578553  73.6845993  78.0611313
  35.6298553  75.6315993  84.6321313  34.8488553  75.5725993  84.2491313
  35.7018553  74.8795993  85.0691313  35.5248553  75.5125993  84.6401313
  36.0598553  75.3685993  88.1001313  36.0848553  74.6935993  87.5491313
  35.4138553  75.8645993  87.7881313  35.9688553  75.3415993  87.9731313
  45.9548553  73.0815993  86.4961313  45.2928553  73.4095993  86.9591313
  46.1418553  73.7155993  85.9271313  45.8848553  73.2235993  86.4801313
  42.5998553  68.9875993  89.9251313  42.7488553  68.1625993  89.6821313
  42.9788553  69.0425993  90.7091313  42.6778553  68.8735993  90.0051313
  44.1478553  71.0505993  80.0071313  44.6378553  71.7675993  79.9301313
  43.3578553  71.3115993  79.7441313  44.1038553  71.1945993  79.9571313
  40.7298553  72.5205993  85.7321313  41.2098553  73.2195993  85.9401313
  41.1028553  71.8735993  86.1831313  40.8558553  72.5285993  85.8291313
  42.9188553  75.6895993  78.0061313  42.9108553  76.4115993  77.5161313
  42.2798553  75.8245993  78.5831313  42.8238553  75.8165993  78.0191313
  37.5118553  68.0315993  77.6671313  37.6088553  67.9245993  78.5281313
  36.8038553  68.5375993  77.6021313  37.4218553  68.0905993  77.7851313
  34.6338553  76.3385993  78.9101313  34.9578553  75.5595993  78.6881313
  35.2798553  76.7065993  79.3651313  34.7768553  76.2775993  78.9441313
  31.6308553  67.9995993  79.8781313  31.7598553  67.2915993  79.3861313
  31.2638553  67.6815993  80.6031313  31.5958553  67.8475993  79.9131313
  41.3238553  75.6805993  80.3351313  41.3828553  76.3305993  80.9141313
  41.1348553  74.9845993  80.8261313  41.3048553  75.6735993  80.4931313
  35.8198553  70.1975993  76.8471313  35.3088553  70.2505993  76.1411313
  36.6038553  70.4375993  76.5511313  35.8598553  70.2405993  76.6991313
  37.6248553  72.5915993  83.8171313  38.4708553  72.4015993  83.9151313
  37.2548553  71.8145993  83.6791313  37.6948553  72.4485993  83.8111313
  32.4458553  73.9295993  80.4721313  32.9348553  73.6375993  81.1331313
  32.5748553  73.3365993  79.8451313  32.5368553  73.7985993  80.4771313
  47.4808553  76.9515993  87.3231313  47.4738553  76.1755993  87.7211313
  46.6398553  77.1855993  87.3161313  47.3558553  76.8715993  87.3811313
  36.9708553  75.3635993  75.9581313  36.3608553  74.9585993  76.4321313
  36.5848553  75.4815993  75.1851313  36.8238553  75.3205993  75.9141313
  38.4258553  73.8245993  78.6681313  38.6978553  74.6505993  78.7351313
  37.5628553  73.8995993  78.5721313  38.3388553  73.9575993  78.6631313
  31.9058553  69.7945993  85.2041313  31.9498553  70.1385993  84.4031313
  32.6608553  70.0315993  85.5711313  32.0238553  69.8805993  85.1401313
  47.1588553  74.8345993  91.7411313  47.4778553  75.6205993  91.9441313
  46.7888553  74.5645993  92.4841313  47.1518553  74.9105993  91.8811313
  46.9548553  73.0925993  82.9301313  46.2098553  72.7695993  83.2481313
  46.9568553  73.9185993  83.2101313  46.8448553  73.1665993  83.0181313
  45.8668553  69.4225993  90.3911313  46.6108553  69.8745993  90.3281313
  45.3008553  69.8925993  89.9221313  45.8938553  69.5595993  90.3131313
  41.0448553  76.7065993  87.4691313  41.5208553  77.0805993  88.0971313
  40.2218553  76.8405993  87.7281313  40.9938553  76.7815993  87.6001313
  37.7548553  72.3095993  90.2101313  37.9158553  71.5655993  90.6371313
  37.7098553  72.0605993  89.3751313  37.7718553  72.1625993  90.1501313
  47.1518553  67.4025993  88.0611313  46.8718553  68.2275993  88.0171313
  47.8678553  67.4555993  88.5571313  47.2168553  67.5325993  88.1281313
  39.5068553  68.1175993  90.0901313  40.2118553  68.4375993  89.6881313
  39.7478553  67.3105993  90.3171313  39.6458553  68.0455993  90.0641313
  48.5728553  73.6575993  76.9181313  48.9508553  74.3345993  76.5181313
  47.7308553  73.8815993  76.9491313  48.5038553  73.7905993  76.8631313
  36.0158553  73.1705993  86.1511313  36.4558553  73.0675993  85.4051313
  36.5608553  72.8575993  86.7561313  36.1608553  73.1095993  86.1301313
  44.0318553  72.2725993  91.7431313  43.3838553  72.7425993  92.0911313
  44.5968553  72.1835993  92.4021313  44.0198553  72.3285993  91.8921313
  43.7198553  73.8095993  88.0411313  44.0218553  74.2295993  88.7441313
  43.7558553  72.9695993  88.2731313  43.7698553  73.7475993  88.1791313
  46.2678553  73.2565993  80.2931313  46.4748553  73.0555993  81.1171313
  47.0238553  73.5245993  79.9511313  46.4098553  73.2665993  80.3641313
  39.5628553  68.1555993  86.1981313  38.7368553  68.0065993  86.4351313
  39.5228553  68.1905993  85.3271313  39.4348553  68.1385993  86.1041313
  47.2898553  69.3395993  81.7671313  46.5758553  68.8685993  81.9381313
  47.1278553  69.6805993  80.9811313  47.1608553  69.3205993  81.6761313
  47.7328553  77.2835993  80.1471313  48.2088553  76.5545993  80.0991313
  46.9118553  76.9975993  80.0711313  47.6818553  77.1335993  80.1281313
  32.1278553  68.5535993  92.2331313  31.9878553  69.3485993  91.9021313
  31.3418553  68.3105993  92.5221313  31.9908553  68.6355993  92.2271313
  35.1918553  71.2975993  79.4581313  35.3178553  70.9685993  78.6601313
  34.3798553  71.0485993  79.6571313  35.0908553  71.2125993  79.3701313
  49.8688553  74.4515993  91.9051313  49.0138553  74.3295993  92.0311313
  50.0218553  74.0565993  91.1421313  49.7648553  74.3745993  91.8111313
  44.3818553  75.1165993  90.4811313  44.1268553  74.3975993  90.9031313
  45.2028553  75.2325993  90.7511313  44.4658553  75.0275993  90.5831313
  35.1688553  73.3085993  89.8741313  35.5438553  73.9275993  89.3871313
  35.8428553  72.8345993  90.1591313  35.3238553  73.3305993  89.8441313
  32.9438553  71.7565993  89.1491313  33.0208553  71.5875993  88.2961313
  33.6898553  72.1625993  89.3461313  33.0648553  71.7915993  89.0521313
  48.5028553  74.3965993  79.5891313  48.6058553  74.3385993  78.7251313
  49.2438553  74.0645993  79.9071313  48.6278553  74.3395993  79.5081313
  35.4978553  69.1665993  91.5601313  35.4168553  68.3225993  91.7661313
  35.1838553  69.2105993  90.7471313  35.4398553  69.0485993  91.4701313
  47.6048553  74.5425993  88.9451313  47.6028553  73.6795993  89.0691313
  47.6718553  74.8665993  89.7521313  47.6148553  74.4625993  89.0821313
  32.3408553  76.9825993  89.3731313  32.6608553  77.2015993  88.5921313
  32.2408553  76.1175993  89.3181313  32.3728553  76.8875993  89.2501313
  33.7968553  72.9185993  75.9911313  33.1248553  72.9325993  76.5471313
  33.8918553  72.0705993  75.8071313  33.7118553  72.7955993  76.0461313
  42.4778553  69.5325993  83.5811313  41.7778553  70.0505993  83.5251313
  42.5158553  69.1525993  82.7971313  42.3798553  69.5535993  83.4571313
  46.0758553  70.0485993  86.3811313  46.9308553  70.1475993  86.5261313
  45.7068553  70.6015993  86.9461313  46.1478553  70.1455993  86.4861313
  37.1038553  76.2745993  90.7581313  36.7078553  77.0485993  90.8331313
  36.6978553  75.9015993  90.0821313  36.9858553  76.3335993  90.6691313
  46.3798553  75.3285993  84.8721313  47.0458553  75.8695993  85.0321313
  46.0348553  75.6395993  84.1331313  46.4268553  75.4545993  84.7871313
  37.5328553  69.2515993  88.2081313  36.6688553  69.3355993  88.2881313
  37.7528553  68.7375993  88.8771313  37.4378553  69.1885993  88.3191313
  49.5508553  67.8865993  89.5371313  49.4988553  67.8425993  90.4071313
  50.2378553  67.3835993  89.3471313  49.6448553  67.8065993  89.6371313
  41.6358553  69.9995993  86.5821313  40.8988553  69.5455993  86.6951313
  42.2068553  69.5975993  87.1051313  41.6108553  69.8725993  86.6761313
  39.1388553  74.3285993  91.7861313  38.8168553  73.7525993  91.2161313
  38.7798553  75.0835993  91.5401313  39.0388553  74.3545993  91.6661313
  39.9348553  67.5805993  76.4131313  40.0128553  67.8275993  75.5801313
  39.1918553  67.9575993  76.6711313  39.8368553  67.6725993  76.3281313
  34.7528553  69.3345993  88.8561313  34.4098553  68.5675993  88.6221313
  34.0578553  69.8585993  88.9201313  34.5998553  69.2985993  88.8311313
  43.7988553  68.1905993  85.8331313  44.4688553  68.7345993  85.9601313
  43.2958553  68.6145993  85.2601313  43.8238553  68.3335993  85.7671313
  43.1578553  73.9985993  83.3261313  43.7088553  73.3915993  83.6261313
  42.7328553  74.2615993  84.0411313  43.1768553  73.9475993  83.4751313
  33.4058553  72.6485993  82.8121313  33.0378553  72.9505993  83.5431313
  33.9398553  72.0195993  83.0961313  33.4298553  72.6005993  82.9621313
  45.1278553  75.8295993  79.8881313  45.1958553  74.9795993  80.0691313
  44.3048553  75.9155993  79.6101313  45.0158553  75.7165993  79.8741313
  39.0468553  76.7205993  78.8261313  39.1468553  76.8595993  77.9711313
  39.8648553  76.6605993  79.1221313  39.1818553  76.7315993  78.7431313
  48.9258553  72.7075993  86.7481313  48.0928553  72.9575993  86.6761313
  48.8698553  71.8675993  86.9771313  48.7948553  72.6205993  86.7711313
  38.1858553  69.6955993  91.9421313  38.4198553  69.1195993  91.3291313
  37.3438553  69.5145993  92.0831313  38.0958553  69.5835993  91.8721313
  42.5768553  67.8985993  62.2968903  42.3318553  68.3865993  61.6168903
  43.4398553  67.8255993  62.1968903  42.6678553  67.9595993  62.1818903
  42.3858553  74.8145993  66.9678903  41.8618553  75.4105993  67.3308903
  42.7828553  74.4465993  67.6518903  42.3668553  74.8485993  67.1228903
  31.9978553  72.7465993  58.9308903  31.2198553  72.9085993  58.5708903
  32.0368553  71.8755993  58.9528903  31.8888553  72.6415993  58.8808903
  45.0568553  75.8815993  63.6438903  45.1368553  75.8855993  62.7748903
  44.4728553  75.2495993  63.7928903  44.9818553  75.7885993  63.5378903
  39.0458553  68.9855993  61.4518903  38.9758553  69.6625993  60.9058903
  39.7868553  68.5975993  61.2028903  39.1448553  69.0285993  61.3338903
  33.6408553  76.2105993  62.8808903  33.1788553  75.8185993  62.2538903
  34.3408553  75.6975993  62.9728903  33.6758553  76.0775993  62.8018903
  38.1488553  71.8205993  68.2278903  38.8268553  71.8385993  67.6788903
  38.1038553  70.9845993  68.4728903  38.2418553  71.6995993  68.1828903
  35.6418553  74.3105993  62.9038903  36.4588553  74.1235993  63.1468903
  35.1648553  73.6965993  63.2998903  35.6918553  74.1925993  62.9988903
  41.8708553  73.8715993  73.0638903  41.0228553  73.7725993  72.8858903
  41.8998553  74.6165993  73.5178903  41.7498553  73.9675993  73.1048903
  36.2388553  69.4045993  62.1698903  35.9428553  69.9055993  61.5198903
  37.1058553  69.4825993  62.1128903  36.3228553  69.4905993  62.0658903
  46.4288553  66.8315993  72.1778903  46.2708553  67.6005993  71.7958903
  45.6568553  66.6115993  72.5218903  46.2908553  66.9125993  72.1728903
  39.2178553  68.5465993  64.3928903  39.2908553  69.4065993  64.5218903
  39.1798553  68.4715993  63.5248903  39.2228553  68.6625993  64.2838903
  43.8908553  71.4725993  56.6918903  43.4408553  72.1535993  56.9988903
  44.0048553  70.9685993  57.3948903  43.8418553  71.4985993  56.8408903
  32.0968553  73.9715993  65.8938903  31.8408553  74.8025993  65.8188903
  31.4328553  73.5885993  66.3108903  31.9608553  74.0375993  65.9448903
  35.1258553  68.7885993  66.3848903  34.6048553  68.1605993  66.0768903
  35.7168553  68.3515993  66.8558903  35.1368553  68.6305993  66.4088903
  38.4318553  70.9215993  75.6828903  38.5488553  70.4675993  74.9468903
  38.7198553  71.7195993  75.4798903  38.4918553  70.9725993  75.5438903
  49.2848553  71.4455993  62.9868903  48.9388553  72.1235993  63.4128903
  48.6488553  70.8475993  63.0028903  49.1398553  71.4575993  63.0518903
  34.1648553  70.5185993  74.6668903  33.3868553  70.1285993  74.5948903
  34.6558553  70.1065993  74.0758903  34.1218553  70.3995993  74.5688903
  40.8138553  68.1615993  73.8348903  40.9918553  67.3525993  73.5598903
  40.6708553  68.6025993  73.0958903  40.8188553  68.1075993  73.6848903
  41.4078553  73.0875993  62.6078903  41.6948553  72.8555993  61.8178903
  42.1398553  73.1665993  63.0768903  41.5578553  73.0645993  62.5608903
  42.1298553  73.4265993  57.7288903  42.4108553  74.2145993  57.9778903
  41.3538553  73.5915993  57.3658903  42.0568553  73.5675993  57.7118903
  48.9598553  69.7685993  68.3558903  49.7168553  69.8405993  67.9278903
  49.0228553  68.9955993  68.7548903  49.0808553  69.6655993  68.3508903
  31.5128553  71.0665993  72.2528903  31.5088553  71.6535993  72.8988903
  32.1068553  71.3785993  71.6958903  31.5998553  71.1995993  72.2658903
  44.4958553  69.4935993  58.5988903  45.0358553  68.8115993  58.6748903
  44.5578553  69.8915993  59.3728903  44.5848553  69.4515993  58.7248903
  32.4498553  70.6615993  61.1678903  32.3358553  69.7975993  61.1988903
  31.9748553  70.9555993  61.8378903  32.3628553  70.5775993  61.2708903
  41.7538553  71.8695993  59.9128903  41.2458553  71.2075993  59.6588903
  41.8058553  72.3735993  59.2028903  41.6868553  71.8465993  59.7708903
  41.7538553  68.8105993  59.8038903  41.2988553  68.4085993  59.1778903
  42.5268553  68.9655993  59.4288903  41.8008553  68.7745993  59.6558903
  40.3518553  71.1775993  64.3258903  40.4258553  71.7455993  63.6678903
  40.4728553  71.6695993  65.0358903  40.3798553  71.3345993  64.3338903
  34.9598553  67.0005993  62.6738903  35.4958553  67.6885993  62.6638903
  34.9628553  66.7265993  61.8458903  35.0388553  67.0615993  62.5498903
  44.1438553  71.3475993  70.2138903  44.0488553  71.6665993  71.0198903
  43.5508553  70.7085993  70.1758903  44.0418553  71.2995993  70.3278903
  45.3998553  67.2915993  63.0498903  45.4488553  66.9735993  63.8608903
  45.7228553  66.6475993  62.5568903  45.4548553  67.1495993  63.0968903
  47.8638553  71.5275993  71.3578903  48.6358553  71.3025993  71.6948903
  47.3888553  71.7445993  72.0578903  47.9078553  71.5265993  71.5108903
  35.4078553  70.8105993  64.3278903  35.6798553  70.3805993  63.6198903
  35.2318553  70.1745993  64.8988903  35.4218553  70.6535993  64.3078903
  33.5488553  71.9125993  67.4098903  34.3918553  72.1325993  67.3668903
  33.1598553  72.4855993  66.8788903  33.6158553  72.0295993  67.3248903
  45.9908553  75.0425993  58.1308903  45.7708553  75.7735993  57.7088903
  45.5428553  75.0935993  58.8778903  45.8918553  75.1575993  58.1788903
  50.1778553  69.9035993  57.5838903  49.5158553  69.3355993  57.6068903
  49.9848553  70.4155993  56.9038903  50.0518553  69.8955993  57.4868903
  39.4028553  73.5975993  75.5278903  38.9188553  74.1745993  75.9698903
  39.3748553  73.8925993  74.7068903  39.3268553  73.7265993  75.4718903
  50.5008553  74.2815993  70.1398903  50.7158553  73.4815993  69.8638903
  49.6508553  74.3415993  69.9508903  50.4068553  74.1725993  70.0708903
  31.8218553  76.5715993  60.5348903  31.6368553  75.7325993  60.6868903
  32.4808553  76.5355993  59.9648903  31.8918553  76.4425993  60.4728903
  48.1798553  69.4615993  59.8628903  48.9258553  69.0545993  60.0618903
  48.4428553  70.1765993  59.4378903  48.3288553  69.5075993  59.8298903
  44.6338553  71.7495993  64.9358903  44.9778553  71.9015993  65.7228903
  44.1808553  71.0115993  65.0488903  44.6178553  71.6625993  65.0688903
  39.1098553  70.9695993  59.3928903  39.1078553  70.8525993  58.5278903
  38.9288553  71.8175993  59.4848903  39.0828553  71.0775993  59.2788903
  34.9778553  74.4045993  73.8868903  34.4418553  73.8985993  74.3548903
  34.9978553  74.0145993  73.1068903  34.9008553  74.2715993  73.8408903
  35.4628553  73.8015993  59.0268903  35.3348553  73.3535993  59.7648903
  34.8808553  73.4595993  58.4748903  35.3578553  73.6845993  59.0548903
  35.6298553  75.6315993  65.6258903  34.8488553  75.5725993  65.2428903
  35.7018553  74.8795993  66.0628903  35.5248553  75.5125993  65.6338903
  36.0598553  75.3685993  69.0938903  36.0848553  74.6935993  68.5428903
  35.4138553  75.8645993  68.7818903  35.9688553  75.3415993  68.9668903
  45.9548553  73.0815993  67.4898903  45.2928553  73.4095993  67.9528903
  46.1418553  73.7155993  66.9208903  45.8848553  73.2235993  67.4738903
  42.5998553  68.9875993  70.9188903  42.7488553  68.1625993  70.6758903
  42.9788553  69.0425993  71.7028903  42.6778553  68.8735993  70.9988903
  44.1478553  71.0505993  61.0008903  44.6378553  71.7675993  60.9238903
  43.3578553  71.3115993  60.7378903  44.1038553  71.1945993  60.9508903
  33.8588553  76.7235993  74.6528903  33.8218553  77.2245993  73.9388903
  34.1898553  75.9715993  74.3578903  33.9018553  76.6855993  74.5038903
  40.7298553  72.5205993  66.7258903  41.2098553  73.2195993  66.9338903
  41.1028553  71.8735993  67.1768903  40.8558553  72.5285993  66.8228903
  42.9188553  75.6895993  58.9998903  42.9108553  76.4115993  58.5098903
  42.2798553  75.8245993  59.5768903  42.8238553  75.8165993  59.0128903
  37.5118553  68.0315993  58.6608903  37.6088553  67.9245993  59.5218903
  36.8038553  68.5375993  58.5958903  37.4218553  68.0905993  58.7788903
  48.2408553  67.7725993  74.0578903  47.6038553  67.3725993  73.6158903
  48.2668553  67.3415993  74.8158903  48.1508553  67.6505993  74.1038903
  34.6338553  76.3385993  59.9038903  34.9578553  75.5595993  59.6818903
  35.2798553  76.7065993  60.3588903  34.7768553  76.2775993  59.9378903
  31.6308553  67.9995993  60.8718903  31.7598553  67.2915993  60.3798903
  31.2638553  67.6815993  61.5968903  31.5958553  67.8475993  60.9068903
  41.3238553  75.6805993  61.3288903  41.3828553  76.3305993  61.9078903
  41.1348553  74.9845993  61.8198903  41.3048553  75.6735993  61.4868903
  35.8198553  70.1975993  57.8408903  35.3088553  70.2505993  57.1348903
  36.6038553  70.4375993  57.5448903  35.8598553  70.2405993  57.6928903
  37.6248553  72.5915993  64.8108903  38.4708553  72.4015993  64.9088903
  37.2548553  71.8145993  64.6728903  37.6948553  72.4485993  64.8048903
  32.4458553  73.9295993  61.4658903  32.9348553  73.6375993  62.1268903
  32.5748553  73.3365993  60.8388903  32.5368553  73.7985993  61.4708903
  47.4808553  76.9515993  68.3168903  47.4738553  76.1755993  68.7148903
  46.6398553  77.1855993  68.3098903  47.3558553  76.8715993  68.3748903
  36.9708553  75.3635993  56.9518903  36.3608553  74.9585993  57.4258903
  36.5848553  75.4815993  56.1788903  36.8238553  75.3205993  56.9078903
  38.4258553  73.8245993  59.6618903  38.6978553  74.6505993  59.7288903
  37.5628553  73.8995993  59.5658903  38.3388553  73.9575993  59.6568903
  46.3988553  70.9465993  74.2938903  45.8738553  71.4055993  74.8178903
  46.0378553  70.1515993  74.2878903  46.2678553  70.8965993  74.3698903
  31.9058553  69.7945993  66.1978903  31.9498553  70.1385993  65.3968903
  32.6608553  70.0315993  66.5648903  32.0238553  69.8805993  66.1338903
  44.8908553  74.5155993  74.3698903  44.9638553  74.6195993  75.2328903
  44.2568553  75.0735993  74.1488903  44.8078553  74.6135993  74.4648903
  47.1588553  74.8345993  72.7348903  47.4778553  75.6205993  72.9378903
  46.7888553  74.5645993  73.4778903  47.1518553  74.9105993  72.8748903
  46.9548553  73.0925993  63.9238903  46.2098553  72.7695993  64.2418903
  46.9568553  73.9185993  64.2038903  46.8448553  73.1665993  64.0118903
  49.8568553  75.3765993  75.4698903  49.8048553  75.0355993  74.6688903
  50.5938553  75.8435993  75.4478903  49.9578553  75.3955993  75.3478903
  45.8668553  69.4225993  71.3848903  46.6108553  69.8745993  71.3218903
  45.3008553  69.8925993  70.9158903  45.8938553  69.5595993  71.3068903
  41.0448553  76.7065993  68.4628903  41.5208553  77.0805993  69.0908903
  40.2218553  76.8405993  68.7218903  40.9938553  76.7815993  68.5938903
  37.7548553  72.3095993  71.2038903  37.9158553  71.5655993  71.6308903
  37.7098553  72.0605993  70.3688903  37.7718553  72.1625993  71.1438903
  47.1518553  67.4025993  69.0548903  46.8718553  68.2275993  69.0108903
  47.8678553  67.4555993  69.5508903  47.2168553  67.5325993  69.1218903
  39.5068553  68.1175993  71.0838903  40.2118553  68.4375993  70.6818903
  39.7478553  67.3105993  71.3108903  39.6458553  68.0455993  71.0578903
  48.5728553  73.6575993  57.9118903  48.9508553  74.3345993  57.5118903
  47.7308553  73.8815993  57.9428903  48.5038553  73.7905993  57.8568903
  36.0158553  73.1705993  67.1448903  36.4558553  73.0675993  66.3988903
  36.5608553  72.8575993  67.7498903  36.1608553  73.1095993  67.1238903
  44.0318553  72.2725993  72.7368903  43.3838553  72.7425993  73.0848903
  44.5968553  72.1835993  73.3958903  44.0198553  72.3285993  72.8858903
  43.7198553  73.8095993  69.0348903  44.0218553  74.2295993  69.7378903
  43.7558553  72.9695993  69.2668903  43.7698553  73.7475993  69.1728903
  46.2678553  73.2565993  61.2868903  46.4748553  73.0555993  62.1108903
  47.0238553  73.5245993  60.9448903  46.4098553  73.2665993  61.3578903
  39.5628553  68.1555993  67.1918903  38.7368553  68.0065993  67.4288903
  39.5228553  68.1905993  66.3208903  39.4348553  68.1385993  67.0978903
  47.2898553  69.3395993  62.7608903  46.5758553  68.8685993  62.9318903
  47.1278553  69.6805993  61.9748903  47.1608553  69.3205993  62.6698903
  47.7328553  77.2835993  61.1408903  48.2088553  76.5545993  61.0928903
  46.9118553  76.9975993  61.0648903  47.6818553  77.1335993  61.1218903
  32.1278553  68.5535993  73.2268903  31.9878553  69.3485993  72.8958903
  31.3418553  68.3105993  73.5158903  31.9908553  68.6355993  73.2208903
  35.1918553  71.2975993  60.4518903  35.3178553  70.9685993  59.6538903
  34.3798553  71.0485993  60.6508903  35.0908553  71.2125993  60.3638903
  49.8688553  74.4515993  72.8988903  49.0138553  74.3295993  73.0248903
  50.0218553  74.0565993  72.1358903  49.7648553  74.3745993  72.8048903
  44.3818553  75.1165993  71.4748903  44.1268553  74.3975993  71.8968903
  45.2028553  75.2325993  71.7448903  44.4658553  75.0275993  71.5768903
  42.3158553  76.3065993  74.6618903  42.6388553  76.9925993  74.2298903
  41.6118553  76.6295993  75.0638903  42.2588553  76.4555993  74.6568903
  35.1688553  73.3085993  70.8678903  35.5438553  73.9275993  70.3808903
  35.8428553  72.8345993  71.1528903  35.3238553  73.3305993  70.8378903
  32.9438553  71.7565993  70.1428903  33.0208553  71.5875993  69.2898903
  33.6898553  72.1625993  70.3398903  33.0648553  71.7915993  70.0458903
  48.5028553  74.3965993  60.5828903  48.6058553  74.3385993  59.7188903
  49.2438553  74.0645993  60.9008903  48.6278553  74.3395993  60.5018903
  35.4978553  69.1665993  72.5538903  35.4168553  68.3225993  72.7598903
  35.1838553  69.2105993  71.7408903  35.4398553  69.0485993  72.4638903
  47.6048553  74.5425993  69.9388903  47.6028553  73.6795993  70.0628903
  47.6718553  74.8665993  70.7458903  47.6148553  74.4625993  70.0758903
  32.3408553  76.9825993  70.3668903  32.6608553  77.2015993  69.5858903
  32.2408553  76.1175993  70.3118903  32.3728553  76.8875993  70.2438903
  33.7968553  72.9185993  56.9848903  33.1248553  72.9325993  57.5408903
  33.8918553  72.0705993  56.8008903  33.7118553  72.7955993  57.0398903
  43.4838553  69.3425993  73.7208903  43.5758553  70.0545993  74.2148903
  42.8468553  68.8975993  74.1178903  43.4028553  69.3815993  73.8528903
  42.4778553  69.5325993  64.5748903  41.7778553  70.0505993  64.5188903
  42.5158553  69.1525993  63.7908903  42.3798553  69.5535993  64.4508903
  46.0758553  70.0485993  67.3748903  46.9308553  70.1475993  67.5198903
  45.7068553  70.6015993  67.9398903  46.1478553  70.1455993  67.4798903
  37.1038553  76.2745993  71.7518903  36.7078553  77.0485993  71.8268903
  36.6978553  75.9015993  71.0758903  36.9858553  76.3335993  71.6628903
  46.3798553  75.3285993  65.8658903  47.0458553  75.8695993  66.0258903
  46.0348553  75.6395993  65.1268903  46.4268553  75.4545993  65.7808903
  37.5328553  69.2515993  69.2018903  36.6688553  69.3355993  69.2818903
  37.7528553  68.7375993  69.8708903  37.4378553  69.1885993  69.3128903
  49.5508553  67.8865993  70.5308903  49.4988553  67.8425993  71.4008903
  50.2378553  67.3835993  70.3408903  49.6448553  67.8065993  70.6308903
  41.6358553  69.9995993  67.5758903  40.8988553  69.5455993  67.6888903
  42.2068553  69.5975993  68.0988903  41.6108553  69.8725993  67.6698903
  39.1388553  74.3285993  72.7798903  38.8168553  73.7525993  72.2098903
  38.7798553  75.0835993  72.5338903  39.0388553  74.3545993  72.6598903
  39.9348553  67.5805993  57.4068903  40.0128553  67.8275993  56.5738903
  39.1918553  67.9575993  57.6648903  39.8368553  67.6725993  57.3218903
  34.7528553  69.3345993  69.8498903  34.4098553  68.5675993  69.6158903
  34.0578553  69.8585993  69.9138903  34.5998553  69.2985993  69.8248903
  43.7988553  68.1905993  66.8268903  44.4688553  68.7345993  66.9538903
  43.2958553  68.6145993  66.2538903  43.8238553  68.3335993  66.7608903
  43.1578553  73.9985993  64.3198903  43.7088553  73.3915993  64.6198903
  42.7328553  74.2615993  65.0348903  43.1768553  73.9475993  64.4688903
  33.4058553  72.6485993  63.8058903  33.0378553  72.9505993  64.5368903
  33.9398553  72.0195993  64.0898903  33.4298553  72.6005993  63.9558903
  45.1278553  75.8295993  60.8818903  45.1958553  74.9795993  61.0628903
  44.3048553  75.9155993  60.6038903  45.0158553  75.7165993  60.8678903
  39.0468553  76.7205993  59.8198903  39.1468553  76.8595993  58.9648903
  39.8648553  76.6605993  60.1158903  39.1818553  76.7315993  59.7368903
  49.0268553  71.7665993  74.7708903  48.8308553  72.4105993  75.3258903
  48.3048553  71.2765993  74.7628903  48.8918553  71.7895993  74.8518903
  48.9258553  72.7075993  67.7418903  48.0928553  72.9575993  67.6698903
  48.8698553  71.8675993  67.9708903  48.7948553  72.6205993  67.7648903
  38.1858553  69.6955993  72.9358903  38.4198553  69.1195993  72.3228903
  37.3438553  69.5145993  73.0768903  38.0958553  69.5835993  72.8658903
  42.5768553  67.8985993  43.2906493  42.3318553  68.3865993  42.6106493
  43.4398553  67.8255993  43.1906493  42.6678553  67.9595993  43.1756493
  42.3858553  74.8145993  47.9616493  41.8618553  75.4105993  48.3246493
  42.7828553  74.4465993  48.6456493  42.3668553  74.8485993  48.1166493
  31.9978553  72.7465993  39.9246493  31.2198553  72.9085993  39.5646493
  32.0368553  71.8755993  39.9466493  31.8888553  72.6415993  39.8746493
  45.0568553  75.8815993  44.6376493  45.1368553  75.8855993  43.7686493
  44.4728553  75.2495993  44.7866493  44.9818553  75.7885993  44.5316493
  39.0458553  68.9855993  42.4456493  38.9758553  69.6625993  41.8996493
  39.7868553  68.5975993  42.1966493  39.1448553  69.0285993  42.3276493
  33.6408553  76.2105993  43.8746493  33.1788553  75.8185993  43.2476493
  34.3408553  75.6975993  43.9666493  33.6758553  76.0775993  43.7956493
  38.1488553  71.8205993  49.2216493  38.8268553  71.8385993  48.6726493
  38.1038553  70.9845993  49.4666493  38.2418553  71.6995993  49.1766493
  35.6418553  74.3105993  43.8976493  36.4588553  74.1235993  44.1406493
  35.1648553  73.6965993  44.2936493  35.6918553  74.1925993  43.9926493
  41.8708553  73.8715993  54.0576493  41.0228553  73.7725993  53.8796493
  41.8998553  74.6165993  54.5116493  41.7498553  73.9675993  54.0986493
  36.2388553  69.4045993  43.1636493  35.9428553  69.9055993  42.5136493
  37.1058553  69.4825993  43.1066493  36.3228553  69.4905993  43.0596493
  46.4288553  66.8315993  53.1716493  46.2708553  67.6005993  52.7896493
  45.6568553  66.6115993  53.5156493  46.2908553  66.9125993  53.1666493
  39.2178553  68.5465993  45.3866493  39.2908553  69.4065993  45.5156493
  39.1798553  68.4715993  44.5186493  39.2228553  68.6625993  45.2776493
  43.8908553  71.4725993  37.6856493  43.4408553  72.1535993  37.9926493
  44.0048553  70.9685993  38.3886493  43.8418553  71.4985993  37.8346493
  32.0968553  73.9715993  46.8876493  31.8408553  74.8025993  46.8126493
  31.4328553  73.5885993  47.3046493  31.9608553  74.0375993  46.9386493
  35.1258553  68.7885993  47.3786493  34.6048553  68.1605993  47.0706493
  35.7168553  68.3515993  47.8496493  35.1368553  68.6305993  47.4026493
  38.4318553  70.9215993  56.6766493  38.5488553  70.4675993  55.9406493
  38.7198553  71.7195993  56.4736493  38.4918553  70.9725993  56.5376493
  49.2848553  71.4455993  43.9806493  48.9388553  72.1235993  44.4066493
  48.6488553  70.8475993  43.9966493  49.1398553  71.4575993  44.0456493
  34.1648553  70.5185993  55.6606493  33.3868553  70.1285993  55.5886493
  34.6558553  70.1065993  55.0696493  34.1218553  70.3995993  55.5626493
  40.8138553  68.1615993  54.8286493  40.9918553  67.3525993  54.5536493
  40.6708553  68.6025993  54.0896493  40.8188553  68.1075993  54.6786493
  41.4078553  73.0875993  43.6016493  41.6948553  72.8555993  42.8116493
  42.1398553  73.1665993  44.0706493  41.5578553  73.0645993  43.5546493
  42.1298553  73.4265993  38.7226493  42.4108553  74.2145993  38.9716493
  41.3538553  73.5915993  38.3596493  42.0568553  73.5675993  38.7056493
  48.9598553  69.7685993  49.3496493  49.7168553  69.8405993  48.9216493
  49.0228553  68.9955993  49.7486493  49.0808553  69.6655993  49.3446493
  31.5128553  71.0665993  53.2466493  31.5088553  71.6535993  53.8926493
  32.1068553  71.3785993  52.6896493  31.5998553  71.1995993  53.2596493
  44.4958553  69.4935993  39.5926493  45.0358553  68.8115993  39.6686493
  44.5578553  69.8915993  40.3666493  44.5848553  69.4515993  39.7186493
  32.4498553  70.6615993  42.1616493  32.3358553  69.7975993  42.1926493
  31.9748553  70.9555993  42.8316493  32.3628553  70.5775993  42.2646493
  41.7538553  71.8695993  40.9066493  41.2458553  71.2075993  40.6526493
  41.8058553  72.3735993  40.1966493  41.6868553  71.8465993  40.7646493
  41.7538553  68.8105993  40.7976493  41.2988553  68.4085993  40.1716493
  42.5268553  68.9655993  40.4226493  41.8008553  68.7745993  40.6496493
  40.3518553  71.1775993  45.3196493  40.4258553  71.7455993  44.6616493
  40.4728553  71.6695993  46.0296493  40.3798553  71.3345993  45.3276493
  34.9598553  67.0005993  43.6676493  35.4958553  67.6885993  43.6576493
  34.9628553  66.7265993  42.8396493  35.0388553  67.0615993  43.5436493
  44.1438553  71.3475993  51.2076493  44.0488553  71.6665993  52.0136493
  43.5508553  70.7085993  51.1696493  44.0418553  71.2995993  51.3216493
  45.3998553  67.2915993  44.0436493  45.4488553  66.9735993  44.8546493
  45.7228553  66.6475993  43.5506493  45.4548553  67.1495993  44.0906493
  47.8638553  71.5275993  52.3516493  48.6358553  71.3025993  52.6886493
  47.3888553  71.7445993  53.0516493  47.9078553  71.5265993  52.5046493
  35.4078553  70.8105993  45.3216493  35.6798553  70.3805993  44.6136493
  35.2318553  70.1745993  45.8926493  35.4218553  70.6535993  45.3016493
  33.5488553  71.9125993  48.4036493  34.3918553  72.1325993  48.3606493
  33.1598553  72.4855993  47.8726493  33.6158553  72.0295993  48.3186493
  45.9908553  75.0425993  39.1246493  45.7708553  75.7735993  38.7026493
  45.5428553  75.0935993  39.8716493  45.8918553  75.1575993  39.1726493
  50.1778553  69.9035993  38.5776493  49.5158553  69.3355993  38.6006493
  49.9848553  70.4155993  37.8976493  50.0518553  69.8955993  38.4806493
  39.4028553  73.5975993  56.5216493  38.9188553  74.1745993  56.9636493
  39.3748553  73.8925993  55.7006493  39.3268553  73.7265993  56.4656493
  50.5008553  74.2815993  51.1336493  50.7158553  73.4815993  50.8576493
  49.6508553  74.3415993  50.9446493  50.4068553  74.1725993  51.0646493
  31.8218553  76.5715993  41.5286493  31.6368553  75.7325993  41.6806493
  32.4808553  76.5355993  40.9586493  31.8918553  76.4425993  41.4666493
  48.1798553  69.4615993  40.8566493  48.9258553  69.0545993  41.0556493
  48.4428553  70.1765993  40.4316493  48.3288553  69.5075993  40.8236493
  44.6338553  71.7495993  45.9296493  44.9778553  71.9015993  46.7166493
  44.1808553  71.0115993  46.0426493  44.6178553  71.6625993  46.0626493
  39.1098553  70.9695993  40.3866493  39.1078553  70.8525993  39.5216493
  38.9288553  71.8175993  40.4786493  39.0828553  71.0775993  40.2726493
  34.9778553  74.4045993  54.8806493  34.4418553  73.8985993  55.3486493
  34.9978553  74.0145993  54.1006493  34.9008553  74.2715993  54.8346493
  35.4628553  73.8015993  40.0206493  35.3348553  73.3535993  40.7586493
  34.8808553  73.4595993  39.4686493  35.3578553  73.6845993  40.0486493
  35.6298553  75.6315993  46.6196493  34.8488553  75.5725993  46.2366493
  35.7018553  74.8795993  47.0566493  35.5248553  75.5125993  46.6276493
  36.0598553  75.3685993  50.0876493  36.0848553  74.6935993  49.5366493
  35.4138553  75.8645993  49.7756493  35.9688553  75.3415993  49.9606493
  45.9548553  73.0815993  48.4836493  45.2928553  73.4095993  48.9466493
  46.1418553  73.7155993  47.9146493  45.8848553  73.2235993  48.4676493
  42.5998553  68.9875993  51.9126493  42.7488553  68.1625993  51.6696493
  42.9788553  69.0425993  52.6966493  42.6778553  68.8735993  51.9926493
  44.1478553  71.0505993  41.9946493  44.6378553  71.7675993  41.9176493
  43.3578553  71.3115993  41.7316493  44.1038553  71.1945993  41.9446493
  33.8588553  76.7235993  55.6466493  33.8218553  77.2245993  54.9326493
  34.1898553  75.9715993  55.3516493  33.9018553  76.6855993  55.4976493
  40.7298553  72.5205993  47.7196493  41.2098553  73.2195993  47.9276493
  41.1028553  71.8735993  48.1706493  40.8558553  72.5285993  47.8166493
  42.9188553  75.6895993  39.9936493  42.9108553  76.4115993  39.5036493
  42.2798553  75.8245993  40.5706493  42.8238553  75.8165993  40.0066493
  37.5118553  68.0315993  39.6546493  37.6088553  67.9245993  40.5156493
  36.8038553  68.5375993  39.5896493  37.4218553  68.0905993  39.7726493
  48.2408553  67.7725993  55.0516493  47.6038553  67.3725993  54.6096493
  48.2668553  67.3415993  55.8096493  48.1508553  67.6505993  55.0976493
  34.6338553  76.3385993  40.8976493  34.9578553  75.5595993  40.6756493
  35.2798553  76.7065993  41.3526493  34.7768553  76.2775993  40.9316493
  31.6308553  67.9995993  41.8656493  31.7598553  67.2915993  41.3736493
  31.2638553  67.6815993  42.5906493  31.5958553  67.8475993  41.9006493
  41.3238553  75.6805993  42.3226493  41.3828553  76.3305993  42.9016493
  41.1348553  74.9845993  42.8136493  41.3048553  75.6735993  42.4806493
  35.8198553  70.1975993  38.8346493  35.3088553  70.2505993  38.1286493
  36.6038553  70.4375993  38.5386493  35.8598553  70.2405993  38.6866493
  37.6248553  72.5915993  45.8046493  38.4708553  72.4015993  45.9026493
  37.2548553  71.8145993  45.6666493  37.6948553  72.4485993  45.7986493
  32.4458553  73.9295993  42.4596493  32.9348553  73.6375993  43.1206493
  32.5748553  73.3365993  41.8326493  32.5368553  73.7985993  42.4646493
  47.4808553  76.9515993  49.3106493  47.4738553  76.1755993  49.7086493
  46.6398553  77.1855993  49.3036493  47.3558553  76.8715993  49.3686493
  36.9708553  75.3635993  37.9456493  36.3608553  74.9585993  38.4196493
  36.5848553  75.4815993  37.1726493  36.8238553  75.3205993  37.9016493
  38.4258553  73.8245993  40.6556493  38.6978553  74.6505993  40.7226493
  37.5628553  73.8995993  40.5596493  38.3388553  73.9575993  40.6506493
  46.3988553  70.9465993  55.2876493  45.8738553  71.4055993  55.8116493
  46.0378553  70.1515993  55.2816493  46.2678553  70.8965993  55.3636493
  31.9058553  69.7945993  47.1916493  31.9498553  70.1385993  46.3906493
  32.6608553  70.0315993  47.5586493  32.0238553  69.8805993  47.1276493
  44.8908553  74.5155993  55.3636493  44.9638553  74.6195993  56.2266493
  44.2568553  75.0735993  55.1426493  44.8078553  74.6135993  55.4586493
  47.1588553  74.8345993  53.7286493  47.4778553  75.6205993  53.9316493
  46.7888553  74.5645993  54.4716493  47.1518553  74.9105993  53.8686493
  46.9548553  73.0925993  44.9176493  46.2098553  72.7695993  45.2356493
  46.9568553  73.9185993  45.1976493  46.8448553  73.1665993  45.0056493
  49.8568553  75.3765993  56.4636493  49.8048553  75.0355993  55.6626493
  50.5938553  75.8435993  56.4416493  49.9578553  75.3955993  56.3416493
  45.8668553  69.4225993  52.3786493  46.6108553  69.8745993  52.3156493
  45.3008553  69.8925993  51.9096493  45.8938553  69.5595993  52.3006493
  41.0448553  76.7065993  49.4566493  41.5208553  77.0805993  50.0846493
  40.2218553  76.8405993  49.7156493  40.9938553  76.7815993  49.5876493
  37.7548553  72.3095993  52.1976493  37.9158553  71.5655993  52.6246493
  37.7098553  72.0605993  51.3626493  37.7718553  72.1625993  52.1376493
  47.1518553  67.4025993  50.0486493  46.8718553  68.2275993  50.0046493
  47.8678553  67.4555993  50.5446493  47.2168553  67.5325993  50.1156493
  39.5068553  68.1175993  52.0776493  40.2118553  68.4375993  51.6756493
  39.7478553  67.3105993  52.3046493  39.6458553  68.0455993  52.0516493
  48.5728553  73.6575993  38.9056493  48.9508553  74.3345993  38.5056493
  47.7308553  73.8815993  38.9366493  48.5038553  73.7905993  38.8506493
  36.0158553  73.1705993  48.1386493  36.4558553  73.0675993  47.3926493
  36.5608553  72.8575993  48.7436493  36.1608553  73.1095993  48.1176493
  44.0318553  72.2725993  53.7306493  43.3838553  72.7425993  54.0786493
  44.5968553  72.1835993  54.3896493  44.0198553  72.3285993  53.8796493
  43.7198553  73.8095993  50.0286493  44.0218553  74.2295993  50.7316493
  43.7558553  72.9695993  50.2606493  43.7698553  73.7475993  50.1666493
  46.2678553  73.2565993  42.2806493  46.4748553  73.0555993  43.1046493
  47.0238553  73.5245993  41.9386493  46.4098553  73.2665993  42.3516493
  39.5628553  68.1555993  48.1856493  38.7368553  68.0065993  48.4226493
  39.5228553  68.1905993  47.3146493  39.4348553  68.1385993  48.0916493
  47.2898553  69.3395993  43.7546493  46.5758553  68.8685993  43.9256493
  47.1278553  69.6805993  42.9686493  47.1608553  69.3205993  43.6636493
  47.7328553  77.2835993  42.1346493  48.2088553  76.5545993  42.0866493
  46.9118553  76.9975993  42.0586493  47.6818553  77.1335993  42.1156493
  32.1278553  68.5535993  54.2206493  31.9878553  69.3485993  53.8896493
  31.3418553  68.3105993  54.5096493  31.9908553  68.6355993  54.2146493
  35.1918553  71.2975993  41.4456493  35.3178553  70.9685993  40.6476493
  34.3798553  71.0485993  41.6446493  35.0908553  71.2125993  41.3576493
  49.8688553  74.4515993  53.8926493  49.0138553  74.3295993  54.0186493
  50.0218553  74.0565993  53.1296493  49.7648553  74.3745993  53.7986493
  44.3818553  75.1165993  52.4686493  44.1268553  74.3975993  52.8906493
  45.2028553  75.2325993  52.7386493  44.4658553  75.0275993  52.5706493
  42.3158553  76.3065993  55.6556493  42.6388553  76.9925993  55.2236493
  41.6118553  76.6295993  56.0576493  42.2588553  76.4555993  55.6506493
  35.1688553  73.3085993  51.8616493  35.5438553  73.9275993  51.3746493
  35.8428553  72.8345993  52.1466493  35.3238553  73.3305993  51.8316493
  32.9438553  71.7565993  51.1366493  33.0208553  71.5875993  50.2836493
  33.6898553  72.1625993  51.3336493  33.0648553  71.7915993  51.0396493
  48.5028553  74.3965993  41.5766493  48.6058553  74.3385993  40.7126493
  49.2438553  74.0645993  41.8946493  48.6278553  74.3395993  41.4956493
  35.4978553  69.1665993  53.5476493  35.4168553  68.3225993  53.7536493
  35.1838553  69.2105993  52.7346493  35.4398553  69.0485993  53.4576493
  47.6048553  74.5425993  50.9326493  47.6028553  73.6795993  51.0566493
  47.6718553  74.8665993  51.7396493  47.6148553  74.4625993  51.0696493
  32.3408553  76.9825993  51.3606493  32.6608553  77.2015993  50.5796493
  32.2408553  76.1175993  51.3056493  32.3728553  76.8875993  51.2376493
  33.7968553  72.9185993  37.9786493  33.1248553  72.9325993  38.5346493
  33.8918553  72.0705993  37.7946493  33.7118553  72.7955993  38.0336493
  43.4838553  69.3425993  54.7146493  43.5758553  70.0545993  55.2086493
  42.8468553  68.8975993  55.1116493  43.4028553  69.3815993  54.8466493
  42.4778553  69.5325993  45.5686493  41.7778553  70.0505993  45.5126493
  42.5158553  69.1525993  44.7846493  42.3798553  69.5535993  45.4446493
  46.0758553  70.0485993  48.3686493  46.9308553  70.1475993  48.5136493
  45.7068553  70.6015993  48.9336493  46.1478553  70.1455993  48.4736493
  37.1038553  76.2745993  52.7456493  36.7078553  77.0485993  52.8206493
  36.6978553  75.9015993  52.0696493  36.9858553  76.3335993  52.6566493
  46.3798553  75.3285993  46.8596493  47.0458553  75.8695993  47.0196493
  46.0348553  75.6395993  46.1206493  46.4268553  75.4545993  46.7746493
  37.5328553  69.2515993  50.1956493  36.6688553  69.3355993  50.2756493
  37.7528553  68.7375993  50.8646493  37.4378553  69.1885993  50.3066493
  49.5508553  67.8865993  51.5246493  49.4988553  67.8425993  52.3946493
  50.2378553  67.3835993  51.3346493  49.6448553  67.8065993  51.6246493
  41.6358553  69.9995993  48.5696493  40.8988553  69.5455993  48.6826493
  42.2068553  69.5975993  49.0926493  41.6108553  69.8725993  48.6636493
  39.1388553  74.3285993  53.7736493  38.8168553  73.7525993  53.2036493
  38.7798553  75.0835993  53.5276493  39.0388553  74.3545993  53.6536493
  39.9348553  67.5805993  38.4006493  40.0128553  67.8275993  37.5676493
  39.1918553  67.9575993  38.6586493  39.8368553  67.6725993  38.3156493
  34.7528553  69.3345993  50.8436493  34.4098553  68.5675993  50.6096493
  34.0578553  69.8585993  50.9076493  34.5998553  69.2985993  50.8186493
  43.7988553  68.1905993  47.8206493  44.4688553  68.7345993  47.9476493
  43.2958553  68.6145993  47.2476493  43.8238553  68.3335993  47.7546493
  43.1578553  73.9985993  45.3136493  43.7088553  73.3915993  45.6136493
  42.7328553  74.2615993  46.0286493  43.1768553  73.9475993  45.4626493
  33.4058553  72.6485993  44.7996493  33.0378553  72.9505993  45.5306493
  33.9398553  72.0195993  45.0836493  33.4298553  72.6005993  44.9496493
  45.1278553  75.8295993  41.8756493  45.1958553  74.9795993  42.0566493
  44.3048553  75.9155993  41.5976493  45.0158553  75.7165993  41.8616493
  39.0468553  76.7205993  40.8136493  39.1468553  76.8595993  39.9586493
  39.8648553  76.6605993  41.1096493  39.1818553  76.7315993  40.7306493
  49.0268553  71.7665993  55.7646493  48.8308553  72.4105993  56.3196493
  48.3048553  71.2765993  55.7566493  48.8918553  71.7895993  55.8456493
  48.9258553  72.7075993  48.7356493  48.0928553  72.9575993  48.6636493
  48.8698553  71.8675993  48.9646493  48.7948553  72.6205993  48.7586493
  38.1858553  69.6955993  53.9296493  38.4198553  69.1195993  53.3166493
  37.3438553  69.5145993  54.0706493  38.0958553  69.5835993  53.8596493
  42.5768553  67.8985993  24.2844083  42.3318553  68.3865993  23.6044083
  43.4398553  67.8255993  24.1844083  42.6678553  67.9595993  24.1694083
  42.3858553  74.8145993  28.9554083  41.8618553  75.4105993  29.3184083
  42.7828553  74.4465993  29.6394083  42.3668553  74.8485993  29.1104083
  31.9978553  72.7465993  20.9184083  31.2198553  72.9085993  20.5584083
  32.0368553  71.8755993  20.9404083  31.8888553  72.6415993  20.8684083
  45.0568553  75.8815993  25.6314083  45.1368553  75.8855993  24.7624083
  44.4728553  75.2495993  25.7804083  44.9818553  75.7885993  25.5254083
  39.0458553  68.9855993  23.4394083  38.9758553  69.6625993  22.8934083
  39.7868553  68.5975993  23.1904083  39.1448553  69.0285993  23.3214083
  33.6408553  76.2105993  24.8684083  33.1788553  75.8185993  24.2414083
  34.3408553  75.6975993  24.9604083  33.6758553  76.0775993  24.7894083
  38.1488553  71.8205993  30.2154083  38.8268553  71.8385993  29.6664083
  38.1038553  70.9845993  30.4604083  38.2418553  71.6995993  30.1704083
  35.6418553  74.3105993  24.8914083  36.4588553  74.1235993  25.1344083
  35.1648553  73.6965993  25.2874083  35.6918553  74.1925993  24.9864083
  41.8708553  73.8715993  35.0514083  41.0228553  73.7725993  34.8734083
  41.8998553  74.6165993  35.5054083  41.7498553  73.9675993  35.0924083
  36.2388553  69.4045993  24.1574083  35.9428553  69.9055993  23.5074083
  37.1058553  69.4825993  24.1004083  36.3228553  69.4905993  24.0534083
  46.4288553  66.8315993  34.1654083  46.2708553  67.6005993  33.7834083
  45.6568553  66.6115993  34.5094083  46.2908553  66.9125993  34.1604083
  39.2178553  68.5465993  26.3804083  39.2908553  69.4065993  26.5094083
  39.1798553  68.4715993  25.5124083  39.2228553  68.6625993  26.2714083
  43.8908553  71.4725993  18.6794083  43.4408553  72.1535993  18.9864083
  44.0048553  70.9685993  19.3824083  43.8418553  71.4985993  18.8284083
  32.0968553  73.9715993  27.8814083  31.8408553  74.8025993  27.8064083
  31.4328553  73.5885993  28.2984083  31.9608553  74.0375993  27.9324083
  35.1258553  68.7885993  28.3724083  34.6048553  68.1605993  28.0644083
  35.7168553  68.3515993  28.8434083  35.1368553  68.6305993  28.3964083
  38.4318553  70.9215993  37.6704083  38.5488553  70.4675993  36.9344083
  38.7198553  71.7195993  37.4674083  38.4918553  70.9725993  37.5314083
  49.2848553  71.4455993  24.9744083  48.9388553  72.1235993  25.4004083
  48.6488553  70.8475993  24.9904083  49.1398553  71.4575993  25.0394083
  34.1648553  70.5185993  36.6544083  33.3868553  70.1285993  36.5824083
  34.6558553  70.1065993  36.0634083  34.1218553  70.3995993  36.5564083
  40.8138553  68.1615993  35.8224083  40.9918553  67.3525993  35.5474083
  40.6708553  68.6025993  35.0834083  40.8188553  68.1075993  35.6724083
  41.4078553  73.0875993  24.5954083  41.6948553  72.8555993  23.8054083
  42.1398553  73.1665993  25.0644083  41.5578553  73.0645993  24.5484083
  42.1298553  73.4265993  19.7164083  42.4108553  74.2145993  19.9654083
  41.3538553  73.5915993  19.3534083  42.0568553  73.5675993  19.6994083
  48.9598553  69.7685993  30.3434083  49.7168553  69.8405993  29.9154083
  49.0228553  68.9955993  30.7424083  49.0808553  69.6655993  30.3384083
  31.5128553  71.0665993  34.2404083  31.5088553  71.6535993  34.8864083
  32.1068553  71.3785993  33.6834083  31.5998553  71.1995993  34.2534083
  44.4958553  69.4935993  20.5864083  45.0358553  68.8115993  20.6624083
  44.5578553  69.8915993  21.3604083  44.5848553  69.4515993  20.7124083
  32.4498553  70.6615993  23.1554083  32.3358553  69.7975993  23.1864083
  31.9748553  70.9555993  23.8254083  32.3628553  70.5775993  23.2584083
  41.7538553  71.8695993  21.9004083  41.2458553  71.2075993  21.6464083
  41.8058553  72.3735993  21.1904083  41.6868553  71.8465993  21.7584083
  41.7538553  68.8105993  21.7914083  41.2988553  68.4085993  21.1654083
  42.5268553  68.9655993  21.4164083  41.8008553  68.7745993  21.6434083
  40.3518553  71.1775993  26.3134083  40.4258553  71.7455993  25.6554083
  40.4728553  71.6695993  27.0234083  40.3798553  71.3345993  26.3214083
  34.9598553  67.0005993  24.6614083  35.4958553  67.6885993  24.6514083
  34.9628553  66.7265993  23.8334083  35.0388553  67.0615993  24.5374083
  44.1438553  71.3475993  32.2014083  44.0488553  71.6665993  33.0074083
  43.5508553  70.7085993  32.1634083  44.0418553  71.2995993  32.3154083
  45.3998553  67.2915993  25.0374083  45.4488553  66.9735993  25.8484083
  45.7228553  66.6475993  24.5444083  45.4548553  67.1495993  25.0844083
  47.8638553  71.5275993  33.3454083  48.6358553  71.3025993  33.6824083
  47.3888553  71.7445993  34.0454083  47.9078553  71.5265993  33.4984083
  35.4078553  70.8105993  26.3154083  35.6798553  70.3805993  25.6074083
  35.2318553  70.1745993  26.8864083  35.4218553  70.6535993  26.2954083
  33.5488553  71.9125993  29.3974083  34.3918553  72.1325993  29.3544083
  33.1598553  72.4855993  28.8664083  33.6158553  72.0295993  29.3124083
  45.9908553  75.0425993  20.1184083  45.7708553  75.7735993  19.6964083
  45.5428553  75.0935993  20.8654083  45.8918553  75.1575993  20.1664083
  50.1778553  69.9035993  19.5714083  49.5158553  69.3355993  19.5944083
  49.9848553  70.4155993  18.8914083  50.0518553  69.8955993  19.4744083
  39.4028553  73.5975993  37.5154083  38.9188553  74.1745993  37.9574083
  39.3748553  73.8925993  36.6944083  39.3268553  73.7265993  37.4594083
  50.5008553  74.2815993  32.1274083  50.7158553  73.4815993  31.8514083
  49.6508553  74.3415993  31.9384083  50.4068553  74.1725993  32.0584083
  31.8218553  76.5715993  22.5224083  31.6368553  75.7325993  22.6744083
  32.4808553  76.5355993  21.9524083  31.8918553  76.4425993  22.4604083
  48.1798553  69.4615993  21.8504083  48.9258553  69.0545993  22.0494083
  48.4428553  70.1765993  21.4254083  48.3288553  69.5075993  21.8174083
  44.6338553  71.7495993  26.9234083  44.9778553  71.9015993  27.7104083
  44.1808553  71.0115993  27.0364083  44.6178553  71.6625993  27.0564083
  39.1098553  70.9695993  21.3804083  39.1078553  70.8525993  20.5154083
  38.9288553  71.8175993  21.4724083  39.0828553  71.0775993  21.2664083
  34.9778553  74.4045993  35.8744083  34.4418553  73.8985993  36.3424083
  34.9978553  74.0145993  35.0944083  34.9008553  74.2715993  35.8284083
  35.4628553  73.8015993  21.0144083  35.3348553  73.3535993  21.7524083
  34.8808553  73.4595993  20.4624083  35.3578553  73.6845993  21.0424083
  35.6298553  75.6315993  27.6134083  34.8488553  75.5725993  27.2304083
  35.7018553  74.8795993  28.0504083  35.5248553  75.5125993  27.6214083
  36.0598553  75.3685993  31.0814083  36.0848553  74.6935993  30.5304083
  35.4138553  75.8645993  30.7694083  35.9688553  75.3415993  30.9544083
  45.9548553  73.0815993  29.4774083  45.2928553  73.4095993  29.9404083
  46.1418553  73.7155993  28.9084083  45.8848553  73.2235993  29.4614083
  42.5998553  68.9875993  32.9064083  42.7488553  68.1625993  32.6634083
  42.9788553  69.0425993  33.6904083  42.6778553  68.8735993  32.9864083
  44.1478553  71.0505993  22.9884083  44.6378553  71.7675993  22.9114083
  43.3578553  71.3115993  22.7254083  44.1038553  71.1945993  22.9384083
  33.8588553  76.7235993  36.6404083  33.8218553  77.2245993  35.9264083
  34.1898553  75.9715993  36.3454083  33.9018553  76.6855993  36.4914083
  40.7298553  72.5205993  28.7134083  41.2098553  73.2195993  28.9214083
  41.1028553  71.8735993  29.1644083  40.8558553  72.5285993  28.8104083
  42.9188553  75.6895993  20.9874083  42.9108553  76.4115993  20.4974083
  42.2798553  75.8245993  21.5644083  42.8238553  75.8165993  21.0004083
  37.5118553  68.0315993  20.6484083  37.6088553  67.9245993  21.5094083
  36.8038553  68.5375993  20.5834083  37.4218553  68.0905993  20.7664083
  48.2408553  67.7725993  36.0454083  47.6038553  67.3725993  35.6034083
  48.2668553  67.3415993  36.8034083  48.1508553  67.6505993  36.0914083
  34.6338553  76.3385993  21.8914083  34.9578553  75.5595993  21.6694083
  35.2798553  76.7065993  22.3464083  34.7768553  76.2775993  21.9254083
  31.6308553  67.9995993  22.8594083  31.7598553  67.2915993  22.3674083
  31.2638553  67.6815993  23.5844083  31.5958553  67.8475993  22.8944083
  41.3238553  75.6805993  23.3164083  41.3828553  76.3305993  23.8954083
  41.1348553  74.9845993  23.8074083  41.3048553  75.6735993  23.4744083
  35.8198553  70.1975993  19.8284083  35.3088553  70.2505993  19.1224083
  36.6038553  70.4375993  19.5324083  35.8598553  70.2405993  19.6804083
  37.6248553  72.5915993  26.7984083  38.4708553  72.4015993  26.8964083
  37.2548553  71.8145993  26.6604083  37.6948553  72.4485993  26.7924083
  32.4458553  73.9295993  23.4534083  32.9348553  73.6375993  24.1144083
  32.5748553  73.3365993  22.8264083  32.5368553  73.7985993  23.4584083
  47.4808553  76.9515993  30.3044083  47.4738553  76.1755993  30.7024083
  46.6398553  77.1855993  30.2974083  47.3558553  76.8715993  30.3624083
  36.9708553  75.3635993  18.9394083  36.3608553  74.9585993  19.4134083
  36.5848553  75.4815993  18.1664083  36.8238553  75.3205993  18.8954083
  38.4258553  73.8245993  21.6494083  38.6978553  74.6505993  21.7164083
  37.5628553  73.8995993  21.5534083  38.3388553  73.9575993  21.6444083
  46.3988553  70.9465993  36.2814083  45.8738553  71.4055993  36.8054083
  46.0378553  70.1515993  36.2754083  46.2678553  70.8965993  36.3574083
  31.9058553  69.7945993  28.1854083  31.9498553  70.1385993  27.3844083
  32.6608553  70.0315993  28.5524083  32.0238553  69.8805993  28.1214083
  44.8908553  74.5155993  36.3574083  44.9638553  74.6195993  37.2204083
  44.2568553  75.0735993  36.1364083  44.8078553  74.6135993  36.4524083
  47.1588553  74.8345993  34.7224083  47.4778553  75.6205993  34.9254083
  46.7888553  74.5645993  35.4654083  47.1518553  74.9105993  34.8624083
  46.9548553  73.0925993  25.9114083  46.2098553  72.7695993  26.2294083
  46.9568553  73.9185993  26.1914083  46.8448553  73.1665993  25.9994083
  49.8568553  75.3765993  37.4574083  49.8048553  75.0355993  36.6564083
  50.5938553  75.8435993  37.4354083  49.9578553  75.3955993  37.3354083
  45.8668553  69.4225993  33.3724083  46.6108553  69.8745993  33.3094083
  45.3008553  69.8925993  32.9034083  45.8938553  69.5595993  33.2944083
  41.0448553  76.7065993  30.4504083  41.5208553  77.0805993  31.0784083
  40.2218553  76.8405993  30.7094083  40.9938553  76.7815993  30.5814083
  37.7548553  72.3095993  33.1914083  37.9158553  71.5655993  33.6184083
  37.7098553  72.0605993  32.3564083  37.7718553  72.1625993  33.1314083
  47.1518553  67.4025993  31.0424083  46.8718553  68.2275993  30.9984083
  47.8678553  67.4555993  31.5384083  47.2168553  67.5325993  31.1094083
  39.5068553  68.1175993  33.0714083  40.2118553  68.4375993  32.6694083
  39.7478553  67.3105993  33.2984083  39.6458553  68.0455993  33.0454083
  48.5728553  73.6575993  19.8994083  48.9508553  74.3345993  19.4994083
  47.7308553  73.8815993  19.9304083  48.5038553  73.7905993  19.8444083
  36.0158553  73.1705993  29.1324083  36.4558553  73.0675993  28.3864083
  36.5608553  72.8575993  29.7374083  36.1608553  73.1095993  29.1114083
  44.0318553  72.2725993  34.7244083  43.3838553  72.7425993  35.0724083
  44.5968553  72.1835993  35.3834083  44.0198553  72.3285993  34.8734083
  43.7198553  73.8095993  31.0224083  44.0218553  74.2295993  31.7254083
  43.7558553  72.9695993  31.2544083  43.7698553  73.7475993  31.1604083
  46.2678553  73.2565993  23.2744083  46.4748553  73.0555993  24.0984083
  47.0238553  73.5245993  22.9324083  46.4098553  73.2665993  23.3454083
  39.5628553  68.1555993  29.1794083  38.7368553  68.0065993  29.4164083
  39.5228553  68.1905993  28.3084083  39.4348553  68.1385993  29.0854083
  47.2898553  69.3395993  24.7484083  46.5758553  68.8685993  24.9194083
  47.1278553  69.6805993  23.9624083  47.1608553  69.3205993  24.6574083
  47.7328553  77.2835993  23.1284083  48.2088553  76.5545993  23.0804083
  46.9118553  76.9975993  23.0524083  47.6818553  77.1335993  23.1094083
  32.1278553  68.5535993  35.2144083  31.9878553  69.3485993  34.8834083
  31.3418553  68.3105993  35.5034083  31.9908553  68.6355993  35.2084083
  35.1918553  71.2975993  22.4394083  35.3178553  70.9685993  21.6414083
  34.3798553  71.0485993  22.6384083  35.0908553  71.2125993  22.3514083
  49.8688553  74.4515993  34.8864083  49.0138553  74.3295993  35.0124083
  50.0218553  74.0565993  34.1234083  49.7648553  74.3745993  34.7924083
  44.3818553  75.1165993  33.4624083  44.1268553  74.3975993  33.8844083
  45.2028553  75.2325993  33.7324083  44.4658553  75.0275993  33.5644083
  42.3158553  76.3065993  36.6494083  42.6388553  76.9925993  36.2174083
  41.6118553  76.6295993  37.0514083  42.2588553  76.4555993  36.6444083
  35.1688553  73.3085993  32.8554083  35.5438553  73.9275993  32.3684083
  35.8428553  72.8345993  33.1404083  35.3238553  73.3305993  32.8254083
  32.9438553  71.7565993  32.1304083  33.0208553  71.5875993  31.2774083
  33.6898553  72.1625993  32.3274083  33.0648553  71.7915993  32.0334083
  48.5028553  74.3965993  22.5704083  48.6058553  74.3385993  21.7064083
  49.2438553  74.0645993  22.8884083  48.6278553  74.3395993  22.4894083
  35.4978553  69.1665993  34.5414083  35.4168553  68.3225993  34.7474083
  35.1838553  69.2105993  33.7284083  35.4398553  69.0485993  34.4514083
  47.6048553  74.5425993  31.9264083  47.6028553  73.6795993  32.0504083
  47.6718553  74.8665993  32.7334083  47.6148553  74.4625993  32.0634083
  32.3408553  76.9825993  32.3544083  32.6608553  77.2015993  31.5734083
  32.2408553  76.1175993  32.2994083  32.3728553  76.8875993  32.2314083
  33.7968553  72.9185993  18.9724083  33.1248553  72.9325993  19.5284083
  33.8918553  72.0705993  18.7884083  33.7118553  72.7955993  19.0274083
  43.4838553  69.3425993  35.7084083  43.5758553  70.0545993  36.2024083
  42.8468553  68.8975993  36.1054083  43.4028553  69.3815993  35.8404083
  42.4778553  69.5325993  26.5624083  41.7778553  70.0505993  26.5064083
  42.5158553  69.1525993  25.7784083  42.3798553  69.5535993  26.4384083
  46.0758553  70.0485993  29.3624083  46.9308553  70.1475993  29.5074083
  45.7068553  70.6015993  29.9274083  46.1478553  70.1455993  29.4674083
  37.1038553  76.2745993  33.7394083  36.7078553  77.0485993  33.8144083
  36.6978553  75.9015993  33.0634083  36.9858553  76.3335993  33.6504083
  46.3798553  75.3285993  27.8534083  47.0458553  75.8695993  28.0134083
  46.0348553  75.6395993  27.1144083  46.4268553  75.4545993  27.7684083
  37.5328553  69.2515993  31.1894083  36.6688553  69.3355993  31.2694083
  37.7528553  68.7375993  31.8584083  37.4378553  69.1885993  31.3004083
  49.5508553  67.8865993  32.5184083  49.4988553  67.8425993  33.3884083
  50.2378553  67.3835993  32.3284083  49.6448553  67.8065993  32.6184083
  41.6358553  69.9995993  29.5634083  40.8988553  69.5455993  29.6764083
  42.2068553  69.5975993  30.0864083  41.6108553  69.8725993  29.6574083
  39.1388553  74.3285993  34.7674083  38.8168553  73.7525993  34.1974083
  38.7798553  75.0835993  34.5214083  39.0388553  74.3545993  34.6474083
  39.9348553  67.5805993  19.3944083  40.0128553  67.8275993  18.5614083
  39.1918553  67.9575993  19.6524083  39.8368553  67.6725993  19.3094083
  34.7528553  69.3345993  31.8374083  34.4098553  68.5675993  31.6034083
  34.0578553  69.8585993  31.9014083  34.5998553  69.2985993  31.8124083
  43.7988553  68.1905993  28.8144083  44.4688553  68.7345993  28.9414083
  43.2958553  68.6145993  28.2414083  43.8238553  68.3335993  28.7484083
  43.1578553  73.9985993  26.3074083  43.7088553  73.3915993  26.6074083
  42.7328553  74.2615993  27.0224083  43.1768553  73.9475993  26.4564083
  33.4058553  72.6485993  25.7934083  33.0378553  72.9505993  26.5244083
  33.9398553  72.0195993  26.0774083  33.4298553  72.6005993  25.9434083
  45.1278553  75.8295993  22.8694083  45.1958553  74.9795993  23.0504083
  44.3048553  75.9155993  22.5914083  45.0158553  75.7165993  22.8554083
  39.0468553  76.7205993  21.8074083  39.1468553  76.8595993  20.9524083
  39.8648553  76.6605993  22.1034083  39.1818553  76.7315993  21.7244083
  49.0268553  71.7665993  36.7584083  48.8308553  72.4105993  37.3134083
  48.3048553  71.2765993  36.7504083  48.8918553  71.7895993  36.8394083
  48.9258553  72.7075993  29.7294083  48.0928553  72.9575993  29.6574083
  48.8698553  71.8675993  29.9584083  48.7948553  72.6205993  29.7524083
  38.1858553  69.6955993  34.9234083  38.4198553  69.1195993  34.3104083
  37.3438553  69.5145993  35.0644083  38.0958553  69.5835993  34.8534083
  42.5768553  67.8985993   5.2781673  42.3318553  68.3865993   4.5981673
  43.4398553  67.8255993   5.1781673  42.6678553  67.9595993   5.1631673
  42.3858553  74.8145993   9.9491673  41.8618553  75.4105993  10.3121673
  42.7828553  74.4465993  10.6331673  42.3668553  74.8485993  10.1041673
  45.0568553  75.8815993   6.6251673  45.1368553  75.8855993   5.7561673
  44.4728553  75.2495993   6.7741673  44.9818553  75.7885993   6.5191673
  39.0458553  68.9855993   4.4331673  38.9758553  69.6625993   3.8871673
  39.7868553  68.5975993   4.1841673  39.1448553  69.0285993   4.3151673
  33.6408553  76.2105993   5.8621673  33.1788553  75.8185993   5.2351673
  34.3408553  75.6975993   5.9541673  33.6758553  76.0775993   5.7831673
  38.1488553  71.8205993  11.2091673  38.8268553  71.8385993  10.6601673
  38.1038553  70.9845993  11.4541673  38.2418553  71.6995993  11.1641673
  35.6418553  74.3105993   5.8851673  36.4588553  74.1235993   6.1281673
  35.1648553  73.6965993   6.2811673  35.6918553  74.1925993   5.9801673
  41.8708553  73.8715993  16.0451673  41.0228553  73.7725993  15.8671673
  41.8998553  74.6165993  16.4991673  41.7498553  73.9675993  16.0861673
  36.2388553  69.4045993   5.1511673  35.9428553  69.9055993   4.5011673
  37.1058553  69.4825993   5.0941673  36.3228553  69.4905993   5.0471673
  46.4288553  66.8315993  15.1591673  46.2708553  67.6005993  14.7771673
  45.6568553  66.6115993  15.5031673  46.2908553  66.9125993  15.1541673
  39.2178553  68.5465993   7.3741673  39.2908553  69.4065993   7.5031673
  39.1798553  68.4715993   6.5061673  39.2228553  68.6625993   7.2651673
  32.0968553  73.9715993   8.8751673  31.8408553  74.8025993   8.8001673
  31.4328553  73.5885993   9.2921673  31.9608553  74.0375993   8.9261673
  35.1258553  68.7885993   9.3661673  34.6048553  68.1605993   9.0581673
  35.7168553  68.3515993   9.8371673  35.1368553  68.6305993   9.3901673
  38.4318553  70.9215993  18.6641673  38.5488553  70.4675993  17.9281673
  38.7198553  71.7195993  18.4611673  38.4918553  70.9725993  18.5251673
  49.2848553  71.4455993   5.9681673  48.9388553  72.1235993   6.3941673
  48.6488553  70.8475993   5.9841673  49.1398553  71.4575993   6.0331673
  34.1648553  70.5185993  17.6481673  33.3868553  70.1285993  17.5761673
  34.6558553  70.1065993  17.0571673  34.1218553  70.3995993  17.5501673
  40.8138553  68.1615993  16.8161673  40.9918553  67.3525993  16.5411673
  40.6708553  68.6025993  16.0771673  40.8188553  68.1075993  16.6661673
  41.4078553  73.0875993   5.5891673  41.6948553  72.8555993   4.7991673
  42.1398553  73.1665993   6.0581673  41.5578553  73.0645993   5.5421673
  48.9598553  69.7685993  11.3371673  49.7168553  69.8405993  10.9091673
  49.0228553  68.9955993  11.7361673  49.0808553  69.6655993  11.3321673
  31.5128553  71.0665993  15.2341673  31.5088553  71.6535993  15.8801673
  32.1068553  71.3785993  14.6771673  31.5998553  71.1995993  15.2471673
  32.4498553  70.6615993   4.1491673  32.3358553  69.7975993   4.1801673
  31.9748553  70.9555993   4.8191673  32.3628553  70.5775993   4.2521673
  41.7538553  71.8695993   2.8941673  41.2458553  71.2075993   2.6401673
  41.8058553  72.3735993   2.1841673  41.6868553  71.8465993   2.7521673
  41.7538553  68.8105993   2.7851673  41.2988553  68.4085993   2.1591673
  42.5268553  68.9655993   2.4101673  41.8008553  68.7745993   2.6371673
  40.3518553  71.1775993   7.3071673  40.4258553  71.7455993   6.6491673
  40.4728553  71.6695993   8.0171673  40.3798553  71.3345993   7.3151673
  34.9598553  67.0005993   5.6551673  35.4958553  67.6885993   5.6451673
  34.9628553  66.7265993   4.8271673  35.0388553  67.0615993   5.5311673
  44.1438553  71.3475993  13.1951673  44.0488553  71.6665993  14.0011673
  43.5508553  70.7085993  13.1571673  44.0418553  71.2995993  13.3091673
  45.3998553  67.2915993   6.0311673  45.4488553  66.9735993   6.8421673
  45.7228553  66.6475993   5.5381673  45.4548553  67.1495993   6.0781673
  47.8638553  71.5275993  14.3391673  48.6358553  71.3025993  14.6761673
  47.3888553  71.7445993  15.0391673  47.9078553  71.5265993  14.4921673
  35.4078553  70.8105993   7.3091673  35.6798553  70.3805993   6.6011673
  35.2318553  70.1745993   7.8801673  35.4218553  70.6535993   7.2891673
  33.5488553  71.9125993  10.3911673  34.3918553  72.1325993  10.3481673
  33.1598553  72.4855993   9.8601673  33.6158553  72.0295993  10.3061673
  39.4028553  73.5975993  18.5091673  38.9188553  74.1745993  18.9511673
  39.3748553  73.8925993  17.6881673  39.3268553  73.7265993  18.4531673
  50.5008553  74.2815993  13.1211673  50.7158553  73.4815993  12.8451673
  49.6508553  74.3415993  12.9321673  50.4068553  74.1725993  13.0521673
  31.8218553  76.5715993   3.5161673  31.6368553  75.7325993   3.6681673
  32.4808553  76.5355993   2.9461673  31.8918553  76.4425993   3.4541673
  48.1798553  69.4615993   2.8441673  48.9258553  69.0545993   3.0431673
  48.4428553  70.1765993   2.4191673  48.3288553  69.5075993   2.8111673
  44.6338553  71.7495993   7.9171673  44.9778553  71.9015993   8.7041673
  44.1808553  71.0115993   8.0301673  44.6178553  71.6625993   8.0501673
  34.9778553  74.4045993  16.8681673  34.4418553  73.8985993  17.3361673
  34.9978553  74.0145993  16.0881673  34.9008553  74.2715993  16.8221673
  35.6298553  75.6315993   8.6071673  34.8488553  75.5725993   8.2241673
  35.7018553  74.8795993   9.0441673  35.5248553  75.5125993   8.6151673
  36.0598553  75.3685993  12.0751673  36.0848553  74.6935993  11.5241673
  35.4138553  75.8645993  11.7631673  35.9688553  75.3415993  11.9481673
  45.9548553  73.0815993  10.4711673  45.2928553  73.4095993  10.9341673
  46.1418553  73.7155993   9.9021673  45.8848553  73.2235993  10.4551673
  42.5998553  68.9875993  13.9001673  42.7488553  68.1625993  13.6571673
  42.9788553  69.0425993  14.6841673  42.6778553  68.8735993  13.9801673
  44.1478553  71.0505993   3.9821673  44.6378553  71.7675993   3.9051673
  43.3578553  71.3115993   3.7191673  44.1038553  71.1945993   3.9321673
  33.8588553  76.7235993  17.6341673  33.8218553  77.2245993  16.9201673
  34.1898553  75.9715993  17.3391673  33.9018553  76.6855993  17.4851673
  40.7298553  72.5205993   9.7071673  41.2098553  73.2195993   9.9151673
  41.1028553  71.8735993  10.1581673  40.8558553  72.5285993   9.8041673
  48.2408553  67.7725993  17.0391673  47.6038553  67.3725993  16.5971673
  48.2668553  67.3415993  17.7971673  48.1508553  67.6505993  17.0851673
  34.6338553  76.3385993   2.8851673  34.9578553  75.5595993   2.6631673
  35.2798553  76.7065993   3.3401673  34.7768553  76.2775993   2.9191673
  31.6308553  67.9995993   3.8531673  31.7598553  67.2915993   3.3611673
  31.2638553  67.6815993   4.5781673  31.5958553  67.8475993   3.8881673
  41.3238553  75.6805993   4.3101673  41.3828553  76.3305993   4.8891673
  41.1348553  74.9845993   4.8011673  41.3048553  75.6735993   4.4681673
  37.6248553  72.5915993   7.7921673  38.4708553  72.4015993   7.8901673
  37.2548553  71.8145993   7.6541673  37.6948553  72.4485993   7.7861673
  32.4458553  73.9295993   4.4471673  32.9348553  73.6375993   5.1081673
  32.5748553  73.3365993   3.8201673  32.5368553  73.7985993   4.4521673
  47.4808553  76.9515993  11.2981673  47.4738553  76.1755993  11.6961673
  46.6398553  77.1855993  11.2911673  47.3558553  76.8715993  11.3561673
  38.4258553  73.8245993   2.6431673  38.6978553  74.6505993   2.7101673
  37.5628553  73.8995993   2.5471673  38.3388553  73.9575993   2.6381673
  46.3988553  70.9465993  17.2751673  45.8738553  71.4055993  17.7991673
  46.0378553  70.1515993  17.2691673  46.2678553  70.8965993  17.3511673
  31.9058553  69.7945993   9.1791673  31.9498553  70.1385993   8.3781673
  32.6608553  70.0315993   9.5461673  32.0238553  69.8805993   9.1151673
  44.8908553  74.5155993  17.3511673  44.9638553  74.6195993  18.2141673
  44.2568553  75.0735993  17.1301673  44.8078553  74.6135993  17.4461673
  47.1588553  74.8345993  15.7161673  47.4778553  75.6205993  15.9191673
  46.7888553  74.5645993  16.4591673  47.1518553  74.9105993  15.8561673
  46.9548553  73.0925993   6.9051673  46.2098553  72.7695993   7.2231673
  46.9568553  73.9185993   7.1851673  46.8448553  73.1665993   6.9931673
  49.8568553  75.3765993  18.4511673  49.8048553  75.0355993  17.6501673
  50.5938553  75.8435993  18.4291673  49.9578553  75.3955993  18.3291673
  45.8668553  69.4225993  14.3661673  46.6108553  69.8745993  14.3031673
  45.3008553  69.8925993  13.8971673  45.8938553  69.5595993  14.2881673
  41.0448553  76.7065993  11.4441673  41.5208553  77.0805993  12.0721673
  40.2218553  76.8405993  11.7031673  40.9938553  76.7815993  11.5751673
  37.7548553  72.3095993  14.1851673  37.9158553  71.5655993  14.6121673
  37.7098553  72.0605993  13.3501673  37.7718553  72.1625993  14.1251673
  47.1518553  67.4025993  12.0361673  46.8718553  68.2275993  11.9921673
  47.8678553  67.4555993  12.5321673  47.2168553  67.5325993  12.1031673
  39.5068553  68.1175993  14.0651673  40.2118553  68.4375993  13.6631673
  39.7478553  67.3105993  14.2921673  39.6458553  68.0455993  14.0391673
  36.0158553  73.1705993  10.1261673  36.4558553  73.0675993   9.3801673
  36.5608553  72.8575993  10.7311673  36.1608553  73.1095993  10.1051673
  44.0318553  72.2725993  15.7181673  43.3838553  72.7425993  16.0661673
  44.5968553  72.1835993  16.3771673  44.0198553  72.3285993  15.8671673
  43.7198553  73.8095993  12.0161673  44.0218553  74.2295993  12.7191673
  43.7558553  72.9695993  12.2481673  43.7698553  73.7475993  12.1541673
  46.2678553  73.2565993   4.2681673  46.4748553  73.0555993   5.0921673
  47.0238553  73.5245993   3.9261673  46.4098553  73.2665993   4.3391673
  39.5628553  68.1555993  10.1731673  38.7368553  68.0065993  10.4101673
  39.5228553  68.1905993   9.3021673  39.4348553  68.1385993  10.0791673
  47.2898553  69.3395993   5.7421673  46.5758553  68.8685993   5.9131673
  47.1278553  69.6805993   4.9561673  47.1608553  69.3205993   5.6511673
  47.7328553  77.2835993   4.1221673  48.2088553  76.5545993   4.0741673
  46.9118553  76.9975993   4.0461673  47.6818553  77.1335993   4.1031673
  32.1278553  68.5535993  16.2081673  31.9878553  69.3485993  15.8771673
  31.3418553  68.3105993  16.4971673  31.9908553  68.6355993  16.2021673
  35.1918553  71.2975993   3.4331673  35.3178553  70.9685993   2.6351673
  34.3798553  71.0485993   3.6321673  35.0908553  71.2125993   3.3451673
  49.8688553  74.4515993  15.8801673  49.0138553  74.3295993  16.0061673
  50.0218553  74.0565993  15.1171673  49.7648553  74.3745993  15.7861673
  44.3818553  75.1165993  14.4561673  44.1268553  74.3975993  14.8781673
  45.2028553  75.2325993  14.7261673  44.4658553  75.0275993  14.5581673
  42.3158553  76.3065993  17.6431673  42.6388553  76.9925993  17.2111673
  41.6118553  76.6295993  18.0451673  42.2588553  76.4555993  17.6381673
  35.1688553  73.3085993  13.8491673  35.5438553  73.9275993  13.3621673
  35.8428553  72.8345993  14.1341673  35.3238553  73.3305993  13.8191673
  32.9438553  71.7565993  13.1241673  33.0208553  71.5875993  12.2711673
  33.6898553  72.1625993  13.3211673  33.0648553  71.7915993  13.0271673
  48.5028553  74.3965993   3.5641673  48.6058553  74.3385993   2.7001673
  49.2438553  74.0645993   3.8821673  48.6278553  74.3395993   3.4831673
  35.4978553  69.1665993  15.5351673  35.4168553  68.3225993  15.7411673
  35.1838553  69.2105993  14.7221673  35.4398553  69.0485993  15.4451673
  47.6048553  74.5425993  12.9201673  47.6028553  73.6795993  13.0441673
  47.6718553  74.8665993  13.7271673  47.6148553  74.4625993  13.0571673
  32.3408553  76.9825993  13.3481673  32.6608553  77.2015993  12.5671673
  32.2408553  76.1175993  13.2931673  32.3728553  76.8875993  13.2251673
  43.4838553  69.3425993  16.7021673  43.5758553  70.0545993  17.1961673
  42.8468553  68.8975993  17.0991673  43.4028553  69.3815993  16.8341673
  42.4778553  69.5325993   7.5561673  41.7778553  70.0505993   7.5001673
  42.5158553  69.1525993   6.7721673  42.3798553  69.5535993   7.4321673
  46.0758553  70.0485993  10.3561673  46.9308553  70.1475993  10.5011673
  45.7068553  70.6015993  10.9211673  46.1478553  70.1455993  10.4611673
  37.1038553  76.2745993  14.7331673  36.7078553  77.0485993  14.8081673
  36.6978553  75.9015993  14.0571673  36.9858553  76.3335993  14.6441673
  46.3798553  75.3285993   8.8471673  47.0458553  75.8695993   9.0071673
  46.0348553  75.6395993   8.1081673  46.4268553  75.4545993   8.7621673
  37.5328553  69.2515993  12.1831673  36.6688553  69.3355993  12.2631673
  37.7528553  68.7375993  12.8521673  37.4378553  69.1885993  12.2941673
  49.5508553  67.8865993  13.5121673  49.4988553  67.8425993  14.3821673
  50.2378553  67.3835993  13.3221673  49.6448553  67.8065993  13.6121673
  41.6358553  69.9995993  10.5571673  40.8988553  69.5455993  10.6701673
  42.2068553  69.5975993  11.0801673  41.6108553  69.8725993  10.6511673
  39.1388553  74.3285993  15.7611673  38.8168553  73.7525993  15.1911673
  38.7798553  75.0835993  15.5151673  39.0388553  74.3545993  15.6411673
  34.7528553  69.3345993  12.8311673  34.4098553  68.5675993  12.5971673
  34.0578553  69.8585993  12.8951673  34.5998553  69.2985993  12.8061673
  43.7988553  68.1905993   9.8081673  44.4688553  68.7345993   9.9351673
  43.2958553  68.6145993   9.2351673  43.8238553  68.3335993   9.7421673
  43.1578553  73.9985993   7.3011673  43.7088553  73.3915993   7.6011673
  42.7328553  74.2615993   8.0161673  43.1768553  73.9475993   7.4501673
  33.4058553  72.6485993   6.7871673  33.0378553  72.9505993   7.5181673
  33.9398553  72.0195993   7.0711673  33.4298553  72.6005993   6.9371673
  45.1278553  75.8295993   3.8631673  45.1958553  74.9795993   4.0441673
  44.3048553  75.9155993   3.5851673  45.0158553  75.7165993   3.8491673
  39.0468553  76.7205993   2.8011673  39.1468553  76.8595993   1.9461673
  39.8648553  76.6605993   3.0971673  39.1818553  76.7315993   2.7181673
  49.0268553  71.7665993  17.7521673  48.8308553  72.4105993  18.3071673
  48.3048553  71.2765993  17.7441673  48.8918553  71.7895993  17.8331673
  48.9258553  72.7075993  10.7231673  48.0928553  72.9575993  10.6511673
  48.8698553  71.8675993  10.9521673  48.7948553  72.6205993  10.7461673
  38.1858553  69.6955993  15.9171673  38.4198553  69.1195993  15.3041673
  37.3438553  69.5145993  16.0581673  38.0958553  69.5835993  15.8471673
  42.5768553  49.4204913  81.3031313  42.3318553  49.9084913  80.6231313
  43.4398553  49.3474913  81.2031313  42.6678553  49.4814913  81.1881313
  42.3858553  56.3364913  85.9741313  41.8618553  56.9324913  86.3371313
  42.7828553  55.9684913  86.6581313  42.3668553  56.3704913  86.1291313
  32.2548553  60.4764913  81.4301313  31.8138553  60.5944913  82.1731313
  31.9718553  59.7014913  81.1451313  32.1478553  60.3794913  81.4981313
  48.5298553  63.7774913  78.9451313  49.2308553  63.2584913  78.9411313
  47.9428553  63.3324913  78.4761313  48.5468553  63.6344913  78.8751313
  31.9978553  54.2684913  77.9371313  31.2198553  54.4304913  77.5771313
  32.0368553  53.3974913  77.9591313  31.8888553  54.1634913  77.8871313
  35.1368553  59.5314913  76.6091313  34.7448553  59.1604913  75.9231313
  35.0568553  58.9334913  77.2381313  35.0668553  59.3884913  76.6001313
  45.0568553  57.4034913  82.6501313  45.1368553  57.4074913  81.7811313
  44.4728553  56.7714913  82.7991313  44.9818553  57.3104913  82.5441313
  34.7638553  61.1724913  80.5091313  35.3718553  61.0024913  81.1121313
  34.0128553  61.0324913  80.9301313  34.7428553  61.1264913  80.6601313
  39.0458553  50.5074913  80.4581313  38.9758553  51.1844913  79.9121313
  39.7868553  50.1194913  80.2091313  39.1448553  50.5504913  80.3401313
  33.6548553  64.2634913  76.5861313  34.1218553  64.3474913  75.8541313
  34.1098553  63.6854913  77.0551313  33.7908553  64.1904913  76.5471313
  32.1948553  63.2114913  87.6851313  32.3238553  62.9314913  88.5011313
  31.5848553  62.6704913  87.3761313  32.1238553  63.0904913  87.7601313
  33.6408553  57.7324913  81.8871313  33.1788553  57.3404913  81.2601313
  34.3408553  57.2194913  81.9791313  33.6758553  57.5994913  81.8081313
  38.1488553  53.3424913  87.2341313  38.8268553  53.3604913  86.6851313
  38.1038553  52.5064913  87.4791313  38.2418553  53.2214913  87.1891313
  38.7508553  63.9284913  90.0151313  38.8888553  64.6884913  89.6081313
  39.5418553  63.5634913  90.0421313  38.8878553  63.9874913  89.9591313
  35.6418553  55.8324913  81.9101313  36.4588553  55.6454913  82.1531313
  35.1648553  55.2184913  82.3061313  35.6918553  55.7144913  82.0051313
  39.8458553  61.8134913  84.5201313  40.1938553  61.0144913  84.5501313
  40.5108553  62.3174913  84.2651313  39.9958553  61.7694913  84.4871313
  39.9028553  61.2624913  80.7311313  40.2338553  60.6184913  81.2171313
  40.1428553  61.0514913  79.9201313  39.9868553  61.1364913  80.6831313
  41.8708553  55.3934913  92.0701313  41.0228553  55.2944913  91.8921313
  41.8998553  56.1384913  92.5241313  41.7498553  55.4894913  92.1111313
  36.2388553  50.9264913  81.1761313  35.9428553  51.4274913  80.5261313
  37.1058553  51.0044913  81.1191313  36.3228553  51.0124913  81.0721313
  46.4288553  48.3534913  91.1841313  46.2708553  49.1224913  90.8021313
  45.6568553  48.1334913  91.5281313  46.2908553  48.4344913  91.1791313
  39.2178553  50.0684913  83.3991313  39.2908553  50.9284913  83.5281313
  39.1798553  49.9934913  82.5311313  39.2228553  50.1844913  83.2901313
  43.8908553  52.9944913  75.6981313  43.4408553  53.6754913  76.0051313
  44.0048553  52.4904913  76.4011313  43.8418553  53.0204913  75.8471313
  32.0968553  55.4934913  84.9001313  31.8408553  56.3244913  84.8251313
  31.4328553  55.1104913  85.3171313  31.9608553  55.5594913  84.9511313
  32.0068553  65.2034913  82.8001313  31.4148553  65.7614913  82.4871313
  32.4328553  64.9344913  82.0881313  31.9828553  65.2454913  82.6491313
  37.8468553  63.0474913  80.2801313  37.2678553  62.7724913  80.8721313
  38.4708553  62.4384913  80.3051313  37.8538553  62.9174913  80.3711313
  43.9898553  65.3354913  77.8021313  44.7168553  65.8074913  77.9041313
  44.2188553  64.5414913  78.0821313  44.1318553  65.2884913  77.8591313
  42.1578553  65.7274913  79.7921313  42.3718553  66.2544913  80.4541313
  42.9248553  65.5534913  79.4131313  42.3028553  65.7794913  79.8341313
  35.1258553  50.3104913  85.3911313  34.6048553  49.6824913  85.0831313
  35.7168553  49.8734913  85.8621313  35.1368553  50.1524913  85.4151313
  33.5518553  63.8734913  80.7311313  34.2078553  63.2984913  80.7461313
  33.9408553  64.6224913  80.5101313  33.7068553  63.8984913  80.7011313
  49.2848553  52.9674913  81.9931313  48.9388553  53.6454913  82.4191313
  48.6488553  52.3694913  82.0091313  49.1398553  52.9794913  82.0581313
  44.5968553  65.7374913  88.0971313  45.3408553  66.1934913  88.0871313
  44.4758553  65.5234913  87.2601313  44.6888553  65.7734913  87.9721313
  34.3698553  62.3604913  84.2311313  34.7928553  62.0044913  83.5571313
  34.6938553  61.9384913  84.9231313  34.4798553  62.2454913  84.2341313
  37.6008553  65.2124913  83.5271313  38.4448553  65.3164913  83.3321313
  37.3038553  66.0304913  83.5951313  37.6818553  65.3484913  83.5081313
  41.4078553  54.6094913  81.6141313  41.6948553  54.3774913  80.8241313
  42.1398553  54.6884913  82.0831313  41.5578553  54.5864913  81.5671313
  42.1298553  54.9484913  76.7351313  42.4108553  55.7364913  76.9841313
  41.3538553  55.1134913  76.3721313  42.0568553  55.0894913  76.7181313
  46.1708553  66.9224913  78.2021313  46.8358553  66.7744913  77.6571313
  46.5308553  66.8394913  78.9921313  46.3228553  66.8884913  78.2381313
  36.5988553  66.4314913  89.2671313  36.8908553  66.3644913  90.0871313
  35.9728553  65.8264913  89.2221313  36.5498553  66.3324913  89.3821313
  48.9598553  51.2904913  87.3621313  49.7168553  51.3624913  86.9341313
  49.0228553  50.5174913  87.7611313  49.0808553  51.1874913  87.3571313
  31.5128553  52.5884913  91.2591313  31.5088553  53.1754913  91.9051313
  32.1068553  52.9004913  90.7021313  31.5998553  52.7214913  91.2721313
  43.8508553  62.9224913  91.8011313  43.8168553  63.3044913  92.5851313
  44.7048553  62.8804913  91.6301313  43.9718553  62.9724913  91.8921313
  40.9888553  63.1194913  76.5511313  40.8078553  63.6644913  77.2081313
  41.7548553  63.4094913  76.2501313  41.0748553  63.2434913  76.6041313
  44.4958553  51.0154913  77.6051313  45.0358553  50.3334913  77.6811313
  44.5578553  51.4134913  78.3791313  44.5848553  50.9734913  77.7311313
  32.4498553  52.1834913  80.1741313  32.3358553  51.3194913  80.2051313
  31.9748553  52.4774913  80.8441313  32.3628553  52.0994913  80.2771313
  34.5918553  64.5934913  88.3891313  33.8938553  64.0854913  88.5151313
  34.8518553  64.3884913  87.5811313  34.5268553  64.4884913  88.2881313
  41.7538553  53.3914913  78.9191313  41.2458553  52.7294913  78.6651313
  41.8058553  53.8954913  78.2091313  41.6868553  53.3684913  78.7771313
  42.3028553  66.0864913  89.2991313  43.0708553  66.0064913  88.8931313
  41.7198553  65.9654913  88.6611313  42.3298553  66.0564913  89.1451313
  41.7538553  50.3324913  78.8101313  41.2988553  49.9304913  78.1841313
  42.5268553  50.4874913  78.4351313  41.8008553  50.2964913  78.6621313
  48.5798553  66.6894913  82.2001313  48.1248553  67.4064913  82.4011313
  47.9658553  66.1184913  81.9581313  48.4218553  66.7114913  82.1941313
  40.3518553  52.6994913  83.3321313  40.4258553  53.2674913  82.6741313
  40.4728553  53.1914913  84.0421313  40.3798553  52.8564913  83.3401313
  45.5768553  62.5344913  81.7441313  46.2778553  62.0524913  81.9331313
  44.9168553  61.9654913  81.7891313  45.5828553  62.3794913  81.7781313
  35.9528553  63.4444913  90.9561313  36.7938553  63.5074913  90.7341313
  35.9158553  63.8414913  91.7321313  36.0718553  63.5124913  91.0381313
  34.9598553  48.5224913  81.6801313  35.4958553  49.2104913  81.6701313
  34.9628553  48.2484913  80.8521313  35.0388553  48.5834913  81.5561313
  37.9158553  58.9554913  85.7051313  38.0878553  58.7454913  86.5341313
  37.2608553  58.4214913  85.4891313  37.8448553  58.8454913  85.7961313
  44.1438553  52.8694913  89.2201313  44.0488553  53.1884913  90.0261313
  43.5508553  52.2304913  89.1821313  44.0418553  52.8214913  89.3341313
  38.6658553  58.8934913  88.2951313  38.7188553  59.7404913  88.4971313
  38.3808553  58.5234913  89.0321313  38.6318553  58.9634913  88.4331313
  44.8428553  59.5884913  87.4251313  44.3288553  59.1764913  87.9961313
  44.7168553  60.4324913  87.6061313  44.7488553  59.6524913  87.5361313
  45.3998553  48.8134913  82.0561313  45.4488553  48.4954913  82.8671313
  45.7228553  48.1694913  81.5631313  45.4548553  48.6714913  82.1031313
  47.8638553  53.0494913  90.3641313  48.6358553  52.8244913  90.7011313
  47.3888553  53.2664913  91.0641313  47.9078553  53.0484913  90.5171313
  35.4078553  52.3324913  83.3341313  35.6798553  51.9024913  82.6261313
  35.2318553  51.6964913  83.9051313  35.4218553  52.1754913  83.3141313
  48.0958553  60.0274913  77.5521313  48.2148553  59.7404913  78.3671313
  48.9028553  60.0484913  77.2221313  48.2318553  59.9884913  77.6241313
  35.2318553  59.7594913  82.8831313  36.0828553  59.6794913  82.7101313
  34.8748553  59.0774913  82.4711313  35.3048553  59.6464913  82.7961313
  33.9988553  66.4844913  84.1201313  33.3258553  65.9864913  83.8751313
  34.4018553  66.6694913  83.3691313  33.9588553  66.4384913  83.9731313
  33.5488553  53.4344913  86.4161313  34.3918553  53.6544913  86.3731313
  33.1598553  54.0074913  85.8851313  33.6158553  53.5514913  86.3311313
  50.3298553  64.5364913  91.8061313  49.6478553  64.8464913  91.3591313
  49.9608553  64.0784913  92.4511313  50.1738553  64.5144913  91.8351313
  45.9908553  56.5644913  77.1371313  45.7708553  57.2954913  76.7151313
  45.5428553  56.6154913  77.8841313  45.8918553  56.6794913  77.1851313
  37.5998553  59.7664913  81.1181313  38.3128553  60.2614913  81.2081313
  37.8218553  59.1994913  80.4921313  37.7378553  59.7554913  81.0391313
  50.1778553  51.4254913  76.5901313  49.5158553  50.8574913  76.6131313
  49.9848553  51.9374913  75.9101313  50.0518553  51.4174913  76.4931313
  31.7558553  61.4094913  84.4381313  31.0888553  61.8974913  84.7141313
  32.4358553  61.9544913  84.4671313  31.7578553  61.5614913  84.4831313
  50.5008553  55.8034913  89.1461313  50.7158553  55.0034913  88.8701313
  49.6508553  55.8634913  88.9571313  50.4068553  55.6944913  89.0771313
  31.8218553  58.0934913  79.5411313  31.6368553  57.2544913  79.6931313
  32.4808553  58.0574913  78.9711313  31.8918553  57.9644913  79.4791313
  48.1798553  50.9834913  78.8691313  48.9258553  50.5764913  79.0681313
  48.4428553  51.6984913  78.4441313  48.3288553  51.0294913  78.8361313
  42.1228553  63.4694913  83.4451313  41.5998553  64.1034913  83.1521313
  42.4328553  63.1054913  82.7161313  42.0908553  63.5094913  83.2941313
  31.9938553  62.2574913  79.1161313  32.5458553  62.8264913  79.4801313
  31.7618553  61.7424913  79.7811313  32.0408553  62.2654913  79.2681313
  36.1978553  61.2574913  86.2051313  36.6648553  61.5464913  86.8831313
  36.7698553  60.7794913  85.7511313  36.3518553  61.2294913  86.2381313
  44.6338553  53.2714913  83.9421313  44.9778553  53.4234913  84.7291313
  44.1808553  52.5334913  84.0551313  44.6178553  53.1844913  84.0751313
  31.8238553  60.7064913  76.7441313  32.5798553  60.2744913  76.8021313
  31.8388553  61.2384913  77.4351313  31.9378553  60.7214913  76.8551313
  32.7638553  58.9274913  84.7491313  33.1948553  58.7984913  84.0021313
  32.5588553  59.7754913  84.7231313  32.7968553  59.0334913  84.6351313
  39.1098553  52.4914913  78.3991313  39.1078553  52.3744913  77.5341313
  38.9288553  53.3394913  78.4911313  39.0828553  52.5994913  78.2851313
  48.1638553  64.9184913  89.8961313  47.4928553  65.4324913  90.1141313
  48.2268553  65.0184913  89.0321313  48.0738553  65.0094913  89.8011313
  36.8478553  62.4434913  83.0311313  36.9738553  63.2864913  83.2181313
  37.5158553  62.0444913  83.4271313  36.9658553  62.5094913  83.1171313
  35.4628553  55.3234913  78.0331313  35.3348553  54.8754913  78.7711313
  34.8808553  54.9814913  77.4811313  35.3578553  55.2064913  78.0611313
  35.6298553  57.1534913  84.6321313  34.8488553  57.0944913  84.2491313
  35.7018553  56.4014913  85.0691313  35.5248553  57.0344913  84.6401313
  36.0598553  56.8904913  88.1001313  36.0848553  56.2154913  87.5491313
  35.4138553  57.3864913  87.7881313  35.9688553  56.8634913  87.9731313
  45.9548553  54.6034913  86.4961313  45.2928553  54.9314913  86.9591313
  46.1418553  55.2374913  85.9271313  45.8848553  54.7454913  86.4801313
  40.1598553  65.6674913  87.4921313  39.8828553  65.0264913  86.9691313
  39.9518553  66.3934913  87.0541313  40.0888553  65.6804913  87.3501313
  42.5998553  50.5094913  89.9251313  42.7488553  49.6844913  89.6821313
  42.9788553  50.5644913  90.7091313  42.6778553  50.3954913  90.0051313
  44.1478553  52.5724913  80.0071313  44.6378553  53.2894913  79.9301313
  43.3578553  52.8334913  79.7441313  44.1038553  52.7164913  79.9571313
  45.4618553  60.4504913  91.9171313  45.9458553  61.1684913  92.0151313
  45.8558553  60.0234913  91.2661313  45.5918553  60.4934913  91.8351313
  40.7298553  54.0424913  85.7321313  41.2098553  54.7414913  85.9401313
  41.1028553  53.3954913  86.1831313  40.8558553  54.0504913  85.8291313
  42.9188553  57.2114913  78.0061313  42.9108553  57.9334913  77.5161313
  42.2798553  57.3464913  78.5831313  42.8238553  57.3384913  78.0191313
  47.8908553  61.0814913  81.9871313  48.2468553  60.7314913  82.7021313
  47.8828553  60.4204913  81.4171313  47.9428553  60.9314913  82.0081313
  43.9358553  64.1474913  85.8311313  43.3328553  63.8514913  85.2741313
  44.4808553  64.5994913  85.3221313  43.9268553  64.1704913  85.6731313
  43.9488553  60.9984913  85.2311313  43.1518553  61.2224913  85.5051313
  44.2068553  60.4044913  85.8161313  43.8688553  60.9434913  85.3581313
  37.8408553  65.8104913  79.6791313  37.6938553  65.0344913  80.0501313
  38.5298553  65.6634913  79.1641313  37.9208553  65.6734913  79.6581313
  40.1328553  65.3264913  78.0811313  40.7548553  65.4894913  78.6711313
  40.1688553  66.0174913  77.5491313  40.2298553  65.4524913  78.0901313
  47.2088553  58.9964913  90.0771313  47.2638553  59.1214913  89.2151313
  47.9618553  59.3164913  90.3791313  47.3278553  59.0614913  89.9941313
  34.6338553  57.8604913  78.9101313  34.9578553  57.0814913  78.6881313
  35.2798553  58.2284913  79.3651313  34.7768553  57.7994913  78.9441313
  42.9398553  58.8024913  89.6771313  42.7848553  59.4124913  90.2811313
  43.4738553  58.2444913  90.0831313  42.9958553  58.8104913  89.8261313
  31.6308553  49.5214913  79.8781313  31.7598553  48.8134913  79.3861313
  31.2638553  49.2034913  80.6031313  31.5958553  49.3694913  79.9131313
  41.3238553  57.2024913  80.3351313  41.3828553  57.8524913  80.9141313
  41.1348553  56.5064913  80.8261313  41.3048553  57.1954913  80.4931313
  46.5498553  61.5314913  86.2041313  46.0708553  61.8294913  85.5381313
  46.1938553  60.7554913  86.3821313  46.4268553  61.4604913  86.1321313
  35.8198553  51.7194913  76.8471313  35.3088553  51.7724913  76.1411313
  36.6038553  51.9594913  76.5511313  35.8598553  51.7624913  76.6991313
  40.5468553  59.2494913  84.7661313  39.6998553  59.0554913  84.8471313
  40.8708553  59.0844913  85.5591313  40.4688553  59.1964913  84.8951313
  37.2988553  65.9794913  75.6521313  37.7378553  65.2824913  75.9401313
  37.5058553  66.6034913  76.2251313  37.3948553  65.9684913  75.7791313
  34.3948553  58.9424913  87.0821313  35.1168553  59.4304913  87.0451313
  34.1248553  58.9124913  86.2531313  34.4618553  59.0104913  86.9541313
  37.6248553  54.1134913  83.8171313  38.4708553  53.9234913  83.9151313
  37.2548553  53.3364913  83.6791313  37.6948553  53.9704913  83.8111313
  50.2418553  65.6974913  78.1441313  50.9358553  65.2304913  77.8961313
  49.7028553  65.0994913  78.4811313  50.2648553  65.5394913  78.1571313
  32.4458553  55.4514913  80.4721313  32.9348553  55.1594913  81.1331313
  32.5748553  54.8584913  79.8451313  32.5368553  55.3204913  80.4771313
  47.4808553  58.4734913  87.3231313  47.4738553  57.6974913  87.7211313
  46.6398553  58.7074913  87.3161313  47.3558553  58.3934913  87.3811313
  36.9708553  56.8854913  75.9581313  36.3608553  56.4804913  76.4321313
  36.5848553  57.0034913  75.1851313  36.8238553  56.8424913  75.9141313
  33.7898553  59.9944913  91.3601313  33.3688553  59.4764913  90.7991313
  33.4378553  60.7804913  91.2171313  33.6758553  60.0344913  91.2561313
  48.7368553  58.5444913  84.7601313  48.4508553  58.9454913  85.4801313
  49.5968553  58.4824913  84.8871313  48.8218553  58.5944913  84.8851313
  38.4258553  55.3464913  78.6681313  38.6978553  56.1724913  78.7351313
  37.5628553  55.4214913  78.5721313  38.3388553  55.4794913  78.6631313
  31.9058553  51.3164913  85.2041313  31.9498553  51.6604913  84.4031313
  32.6608553  51.5534913  85.5711313  32.0238553  51.4024913  85.1401313
  49.8678553  64.1774913  85.2891313  50.1578553  64.4344913  84.5081313
  50.5628553  64.2734913  85.8081313  50.0138553  64.2294913  85.2501313
  47.1588553  56.3564913  91.7411313  47.4778553  57.1424913  91.9441313
  46.7888553  56.0864913  92.4841313  47.1518553  56.4324913  91.8811313
  46.4728553  62.7804913  77.2711313  46.8068553  61.9744913  77.3061313
  45.7178553  62.7084913  77.7011313  46.4108553  62.6504913  77.3401313
  46.9548553  54.6144913  82.9301313  46.2098553  54.2914913  83.2481313
  46.9568553  55.4404913  83.2101313  46.8448553  54.6884913  83.0181313
  49.3948553  60.5744913  90.6821313  50.0228553  60.0254913  90.4261313
  49.3338553  61.1394913  90.0201313  49.4788553  60.5774913  90.5461313
  43.8468553  60.6554913  76.6741313  44.5308553  60.1414913  76.5051313
  43.4298553  60.7014913  75.9091313  43.8858553  60.5864913  76.5361313
  38.5288553  61.8054913  87.9781313  38.2308553  62.3974913  88.5451313
  38.5838553  62.2474913  87.2291313  38.4928553  61.9584913  87.9511313
  36.5078553  60.7554913  91.3761313  35.7018553  60.4654913  91.5431313
  36.4188553  61.6234913  91.3821313  36.3758553  60.8404913  91.4011313
  45.8668553  50.9444913  90.3911313  46.6108553  51.3964913  90.3281313
  45.3008553  51.4144913  89.9221313  45.8938553  51.0814913  90.3131313
  41.0448553  58.2284913  87.4691313  41.5208553  58.6024913  88.0971313
  40.2218553  58.3624913  87.7281313  40.9938553  58.3034913  87.6001313
  37.7548553  53.8314913  90.2101313  37.9158553  53.0874913  90.6371313
  37.7098553  53.5824913  89.3751313  37.7718553  53.6844913  90.1501313
  40.3088553  65.6214913  82.6971313  40.8548553  66.3004913  82.7511313
  39.9588553  65.7034913  81.9021313  40.3378553  65.7344913  82.5871313
  47.1518553  48.9244913  88.0611313  46.8718553  49.7494913  88.0171313
  47.8678553  48.9774913  88.5571313  47.2168553  49.0544913  88.1281313
  39.5068553  49.6394913  90.0901313  40.2118553  49.9594913  89.6881313
  39.7478553  48.8324913  90.3171313  39.6458553  49.5674913  90.0641313
  38.4918553  63.8494913  86.0861313  37.8678553  64.4314913  85.9041313
  38.7398553  63.5634913  85.3001313  38.4358553  63.8934913  85.9431313
  46.7098553  63.0334913  91.5791313  47.0558553  63.3034913  92.3331313
  47.0038553  63.6154913  90.9991313  46.8048553  63.1594913  91.6051313
  48.5728553  55.1794913  76.9181313  48.9508553  55.8564913  76.5181313
  47.7308553  55.4034913  76.9491313  48.5038553  55.3124913  76.8631313
  40.0858553  58.6254913  76.0011313  39.2808553  58.4484913  75.7161313
  40.0528553  59.4764913  76.1931313  39.9618553  58.7244913  75.9881313
  36.0158553  54.6924913  86.1511313  36.4558553  54.5894913  85.4051313
  36.5608553  54.3794913  86.7561313  36.1608553  54.6314913  86.1301313
  44.0318553  53.7944913  91.7431313  43.3838553  54.2644913  92.0911313
  44.5968553  53.7054913  92.4021313  44.0198553  53.8504913  91.8921313
  43.7198553  55.3314913  88.0411313  44.0218553  55.7514913  88.7441313
  43.7558553  54.4914913  88.2731313  43.7698553  55.2694913  88.1791313
  41.1448553  65.4984913  91.9661313  41.6228553  64.8984913  91.5501313
  40.7938553  65.0554913  92.6311313  41.1638553  65.3444913  92.0031313
  46.2678553  54.7784913  80.2931313  46.4748553  54.5774913  81.1171313
  47.0238553  55.0464913  79.9511313  46.4098553  54.7884913  80.3641313
  39.5628553  49.6774913  86.1981313  38.7368553  49.5284913  86.4351313
  39.5228553  49.7124913  85.3271313  39.4348553  49.6604913  86.1041313
  47.2898553  50.8614913  81.7671313  46.5758553  50.3904913  81.9381313
  47.1278553  51.2024913  80.9811313  47.1608553  50.8424913  81.6761313
  47.7328553  58.8054913  80.1471313  48.2088553  58.0764913  80.0991313
  46.9118553  58.5194913  80.0711313  47.6818553  58.6554913  80.1281313
  41.2038553  60.7174913  90.9861313  40.4088553  60.6534913  91.3371313
  41.2748553  61.5644913  90.7911313  41.0968553  60.8324913  91.0091313
  32.1278553  50.0754913  92.2331313  31.9878553  50.8704913  91.9021313
  31.3418553  49.8324913  92.5221313  31.9908553  50.1574913  92.2271313
  37.0338553  66.9244913  86.3031313  37.0448553  66.9834913  87.1731313
  36.6088553  66.1774913  86.1531313  36.9728553  66.8224913  86.4091313
  35.1918553  52.8194913  79.4581313  35.3178553  52.4904913  78.6601313
  34.3798553  52.5704913  79.6571313  35.0908553  52.7344913  79.3701313
  43.9488553  59.9724913  82.5021313  44.0248553  60.3134913  83.3011313
  44.1178553  59.1254913  82.6231313  43.9848553  59.8974913  82.6381313
  41.4708553  59.2464913  82.0671313  41.1728553  58.9314913  82.8241313
  42.1658553  59.7194913  82.3021313  41.5298553  59.2694913  82.2141313
  41.6928553  63.3644913  90.0941313  42.3798553  63.2504913  90.6191313
  41.8268553  64.1554913  89.7501313  41.8138553  63.4644913  90.1211313
  49.8688553  55.9734913  91.9051313  49.0138553  55.8514913  92.0311313
  50.0218553  55.5784913  91.1421313  49.7648553  55.8964913  91.8111313
  44.3818553  56.6384913  90.4811313  44.1268553  55.9194913  90.9031313
  45.2028553  56.7544913  90.7511313  44.4658553  56.5494913  90.5831313
  33.7978553  66.4224913  91.7451313  33.1438553  65.8534913  91.8431313
  33.4228553  67.1954913  91.8961313  33.6458553  66.4524913  91.7821313
  45.3998553  66.2024913  84.5971313  44.9488553  66.8454913  84.9761313
  46.1078553  66.1234913  85.1021313  45.4378553  66.2854913  84.7281313
  42.1008553  61.2924913  87.5271313  41.4068553  61.6944913  87.8701313
  42.7778553  61.7254913  87.8661313  42.0978553  61.4154913  87.6281313
  35.1688553  54.8304913  89.8741313  35.5438553  55.4494913  89.3871313
  35.8428553  54.3564913  90.1591313  35.3238553  54.8524913  89.8441313
  32.9438553  53.2784913  89.1491313  33.0208553  53.1094913  88.2961313
  33.6898553  53.6844913  89.3461313  33.0648553  53.3134913  89.0521313
  48.5028553  55.9184913  79.5891313  48.6058553  55.8604913  78.7251313
  49.2438553  55.5864913  79.9071313  48.6278553  55.8614913  79.5081313
  35.4978553  50.6884913  91.5601313  35.4168553  49.8444913  91.7661313
  35.1838553  50.7324913  90.7471313  35.4398553  50.5704913  91.4701313
  42.4228553  62.8834913  80.6961313  42.2178553  63.7164913  80.5371313
  41.6478553  62.5014913  80.8181313  42.2778553  62.9504913  80.6911313
  47.6048553  56.0644913  88.9451313  47.6028553  55.2014913  89.0691313
  47.6718553  56.3884913  89.7521313  47.6148553  55.9844913  89.0821313
  32.3408553  58.5044913  89.3731313  32.6608553  58.7234913  88.5921313
  32.2408553  57.6394913  89.3181313  32.3728553  58.4094913  89.2501313
  33.7968553  54.4404913  75.9911313  33.1248553  54.4544913  76.5471313
  33.8918553  53.5924913  75.8071313  33.7118553  54.3174913  76.0461313
  42.4778553  51.0544913  83.5811313  41.7778553  51.5724913  83.5251313
  42.5158553  50.6744913  82.7971313  42.3798553  51.0754913  83.4571313
  37.7848553  63.1454913  77.1051313  38.2258553  63.2254913  77.8531313
  36.9798553  62.9294913  77.3631313  37.7308553  63.1254913  77.2541313
  46.0758553  51.5704913  86.3811313  46.9308553  51.6694913  86.5261313
  45.7068553  52.1234913  86.9461313  46.1478553  51.6674913  86.4861313
  37.1038553  57.7964913  90.7581313  36.7078553  58.5704913  90.8331313
  36.6978553  57.4234913  90.0821313  36.9858553  57.8554913  90.6691313
  46.3798553  56.8504913  84.8721313  47.0458553  57.3914913  85.0321313
  46.0348553  57.1614913  84.1331313  46.4268553  56.9764913  84.7871313
  46.6928553  64.9164913  80.6791313  46.5188553  64.2624913  81.2291313
  47.4058553  64.6454913  80.2561313  46.7728553  64.7794913  80.6981313
  35.1138553  62.2154913  77.7061313  34.8698553  61.9084913  78.4861313
  35.0808553  61.5124913  77.1901313  35.0728553  62.0664913  77.7451313
  37.9328553  60.4604913  76.4491313  37.1148553  60.1924913  76.5891313
  37.9048553  61.3124913  76.6341313  37.8078553  60.5474913  76.4971313
  37.5328553  50.7734913  88.2081313  36.6688553  50.8574913  88.2881313
  37.7528553  50.2594913  88.8771313  37.4378553  50.7104913  88.3191313
  49.5508553  49.4084913  89.5371313  49.4988553  49.3644913  90.4071313
  50.2378553  48.9054913  89.3471313  49.6448553  49.3284913  89.6371313
  41.6358553  51.5214913  86.5821313  40.8988553  51.0674913  86.6951313
  42.2068553  51.1194913  87.1051313  41.6108553  51.3944913  86.6761313
  44.3678553  62.3694913  88.3701313  44.5738553  62.6704913  89.1621313
  44.3068553  63.0914913  87.8851313  44.3888553  62.5204913  88.4151313
  39.1388553  55.8504913  91.7861313  38.8168553  55.2744913  91.2161313
  38.7798553  56.6054913  91.5401313  39.0388553  55.8764913  91.6661313
  39.9348553  49.1024913  76.4131313  40.0128553  49.3494913  75.5801313
  39.1918553  49.4794913  76.6711313  39.8368553  49.1944913  76.3281313
  49.1798553  61.0084913  87.8281313  49.1478553  60.1464913  87.6931313
  48.4868553  61.3104913  87.3941313  49.0728553  60.9254913  87.7441313
  47.2848553  64.2684913  86.6251313  47.8118553  64.1854913  85.9341313
  46.8938553  63.4904913  86.6791313  47.3048553  64.1414913  86.5311313
  34.7528553  50.8564913  88.8561313  34.4098553  50.0894913  88.6221313
  34.0578553  51.3804913  88.9201313  34.5998553  50.8204913  88.8311313
  43.7988553  49.7124913  85.8331313  44.4688553  50.2564913  85.9601313
  43.2958553  50.1364913  85.2601313  43.8238553  49.8554913  85.7671313
  43.1578553  55.5204913  83.3261313  43.7088553  54.9134913  83.6261313
  42.7328553  55.7834913  84.0411313  43.1768553  55.4694913  83.4751313
  33.4058553  54.1704913  82.8121313  33.0378553  54.4724913  83.5431313
  33.9398553  53.5414913  83.0961313  33.4298553  54.1224913  82.9621313
  33.0938553  62.5784913  90.3231313  32.5198553  62.9944913  90.8321313
  33.8268553  63.0434913  90.4181313  33.1178553  62.7084913  90.4121313
  45.1278553  57.3514913  79.8881313  45.1958553  56.5014913  80.0691313
  44.3048553  57.4374913  79.6101313  45.0158553  57.2384913  79.8741313
  34.8798553  65.8454913  79.0981313  34.7348553  66.0014913  78.2521313
  35.7458553  65.9244913  79.1761313  34.9868553  65.8804913  78.9851313
  39.0468553  58.2424913  78.8261313  39.1468553  58.3814913  77.9711313
  39.8648553  58.1824913  79.1221313  39.1818553  58.2534913  78.7431313
  48.2068553  66.3064913  76.3061313  48.8438553  66.1724913  76.8871313
  47.8658553  65.5124913  76.1891313  48.2508553  66.1694913  76.3741313
  44.2818553  62.5714913  78.6281313  44.0308553  62.4434913  79.4541313
  43.9648553  61.8764913  78.2071313  44.1978553  62.4504913  78.6881313
  48.9258553  54.2294913  86.7481313  48.0928553  54.4794913  86.6761313
  48.8698553  53.3894913  86.9771313  48.7948553  54.1424913  86.7711313
  38.1858553  51.2174913  91.9421313  38.4198553  50.6414913  91.3291313
  37.3438553  51.0364913  92.0831313  38.0958553  51.1054913  91.8721313
  35.5668553  64.6604913  85.5751313  35.4878553  63.8504913  85.2591313
  35.1228553  65.1474913  85.0031313  35.4898553  64.6124913  85.4441313
  41.1678553  60.7794913  78.0581313  41.8848553  60.4324913  77.7021313
  41.1338553  61.5794913  77.7101313  41.2688553  60.8464913  77.9541313
  33.1388553  66.9044913  89.1561313  33.6318553  66.8484913  89.8741313
  33.3268553  66.1714913  88.7211313  33.2398553  66.7874913  89.1981313
  42.5768553  49.4204913  62.2968903  42.3318553  49.9084913  61.6168903
  43.4398553  49.3474913  62.1968903  42.6678553  49.4814913  62.1818903
  42.3858553  56.3364913  66.9678903  41.8618553  56.9324913  67.3308903
  42.7828553  55.9684913  67.6518903  42.3668553  56.3704913  67.1228903
  32.2548553  60.4764913  62.4238903  31.8138553  60.5944913  63.1668903
  31.9718553  59.7014913  62.1388903  32.1478553  60.3794913  62.4918903
  48.5298553  63.7774913  59.9388903  49.2308553  63.2584913  59.9348903
  47.9428553  63.3324913  59.4698903  48.5468553  63.6344913  59.8688903
  35.1368553  59.5314913  57.6028903  34.7448553  59.1604913  56.9168903
  35.0568553  58.9334913  58.2318903  35.0668553  59.3884913  57.5938903
  45.0568553  57.4034913  63.6438903  45.1368553  57.4074913  62.7748903
  44.4728553  56.7714913  63.7928903  44.9818553  57.3104913  63.5378903
  34.7638553  61.1724913  61.5028903  35.3718553  61.0024913  62.1058903
  34.0128553  61.0324913  61.9238903  34.7428553  61.1264913  61.6538903
  39.0458553  50.5074913  61.4518903  38.9758553  51.1844913  60.9058903
  39.7868553  50.1194913  61.2028903  39.1448553  50.5504913  61.3338903
  32.1948553  63.2114913  68.6788903  32.3238553  62.9314913  69.4948903
  31.5848553  62.6704913  68.3698903  32.1238553  63.0904913  68.7538903
  38.7688553  60.7364913  73.7458903  38.5328553  60.7334913  74.5858903
  38.0208553  60.5884913  73.3218903  38.6228553  60.7134913  73.8068903
  38.1488553  53.3424913  68.2278903  38.8268553  53.3604913  67.6788903
  38.1038553  52.5064913  68.4728903  38.2418553  53.2214913  68.1828903
  38.7508553  63.9284913  71.0088903  38.8888553  64.6884913  70.6018903
  39.5418553  63.5634913  71.0358903  38.8878553  63.9874913  70.9528903
  39.8458553  61.8134913  65.5138903  40.1938553  61.0144913  65.5438903
  40.5108553  62.3174913  65.2588903  39.9958553  61.7694913  65.4808903
  39.9028553  61.2624913  61.7248903  40.2338553  60.6184913  62.2108903
  40.1428553  61.0514913  60.9138903  39.9868553  61.1364913  61.6768903
  41.8708553  55.3934913  73.0638903  41.0228553  55.2944913  72.8858903
  41.8998553  56.1384913  73.5178903  41.7498553  55.4894913  73.1048903
  36.2388553  50.9264913  62.1698903  35.9428553  51.4274913  61.5198903
  37.1058553  51.0044913  62.1128903  36.3228553  51.0124913  62.0658903
  46.4288553  48.3534913  72.1778903  46.2708553  49.1224913  71.7958903
  45.6568553  48.1334913  72.5218903  46.2908553  48.4344913  72.1728903
  39.2178553  50.0684913  64.3928903  39.2908553  50.9284913  64.5218903
  39.1798553  49.9934913  63.5248903  39.2228553  50.1844913  64.2838903
  43.8908553  52.9944913  56.6918903  43.4408553  53.6754913  56.9988903
  44.0048553  52.4904913  57.3948903  43.8418553  53.0204913  56.8408903
  32.0068553  65.2034913  63.7938903  31.4148553  65.7614913  63.4808903
  32.4328553  64.9344913  63.0818903  31.9828553  65.2454913  63.6428903
  37.8468553  63.0474913  61.2738903  37.2678553  62.7724913  61.8658903
  38.4708553  62.4384913  61.2988903  37.8538553  62.9174913  61.3648903
  43.9898553  65.3354913  58.7958903  44.7168553  65.8074913  58.8978903
  44.2188553  64.5414913  59.0758903  44.1318553  65.2884913  58.8528903
  42.1578553  65.7274913  60.7858903  42.3718553  66.2544913  61.4478903
  42.9248553  65.5534913  60.4068903  42.3028553  65.7794913  60.8278903
  38.4318553  52.4434913  75.6828903  38.5488553  51.9894913  74.9468903
  38.7198553  53.2414913  75.4798903  38.4918553  52.4944913  75.5438903
  33.5518553  63.8734913  61.7248903  34.2078553  63.2984913  61.7398903
  33.9408553  64.6224913  61.5038903  33.7068553  63.8984913  61.6948903
  49.2848553  52.9674913  62.9868903  48.9388553  53.6454913  63.4128903
  48.6488553  52.3694913  63.0028903  49.1398553  52.9794913  63.0518903
  44.5968553  65.7374913  69.0908903  45.3408553  66.1934913  69.0808903
  44.4758553  65.5234913  68.2538903  44.6888553  65.7734913  68.9658903
  34.1648553  52.0404913  74.6668903  33.3868553  51.6504913  74.5948903
  34.6558553  51.6284913  74.0758903  34.1218553  51.9214913  74.5688903
  34.3698553  62.3604913  65.2248903  34.7928553  62.0044913  64.5508903
  34.6938553  61.9384913  65.9168903  34.4798553  62.2454913  65.2278903
  37.6008553  65.2124913  64.5208903  38.4448553  65.3164913  64.3258903
  37.3038553  66.0304913  64.5888903  37.6818553  65.3484913  64.5018903
  40.8138553  49.6834913  73.8348903  40.9918553  48.8744913  73.5598903
  40.6708553  50.1244913  73.0958903  40.8188553  49.6294913  73.6848903
  41.4078553  54.6094913  62.6078903  41.6948553  54.3774913  61.8178903
  42.1398553  54.6884913  63.0768903  41.5578553  54.5864913  62.5608903
  42.1298553  54.9484913  57.7288903  42.4108553  55.7364913  57.9778903
  41.3538553  55.1134913  57.3658903  42.0568553  55.0894913  57.7118903
  46.1708553  66.9224913  59.1958903  46.8358553  66.7744913  58.6508903
  46.5308553  66.8394913  59.9858903  46.3228553  66.8884913  59.2318903
  36.5988553  66.4314913  70.2608903  36.8908553  66.3644913  71.0808903
  35.9728553  65.8264913  70.2158903  36.5498553  66.3324913  70.3758903
  48.9598553  51.2904913  68.3558903  49.7168553  51.3624913  67.9278903
  49.0228553  50.5174913  68.7548903  49.0808553  51.1874913  68.3508903
  31.5128553  52.5884913  72.2528903  31.5088553  53.1754913  72.8988903
  32.1068553  52.9004913  71.6958903  31.5998553  52.7214913  72.2658903
  43.8508553  62.9224913  72.7948903  43.8168553  63.3044913  73.5788903
  44.7048553  62.8804913  72.6238903  43.9718553  62.9724913  72.8858903
  40.9888553  63.1194913  57.5448903  40.8078553  63.6644913  58.2018903
  41.7548553  63.4094913  57.2438903  41.0748553  63.2434913  57.5978903
  44.4958553  51.0154913  58.5988903  45.0358553  50.3334913  58.6748903
  44.5578553  51.4134913  59.3728903  44.5848553  50.9734913  58.7248903
  34.5918553  64.5934913  69.3828903  33.8938553  64.0854913  69.5088903
  34.8518553  64.3884913  68.5748903  34.5268553  64.4884913  69.2818903
  41.7538553  53.3914913  59.9128903  41.2458553  52.7294913  59.6588903
  41.8058553  53.8954913  59.2028903  41.6868553  53.3684913  59.7708903
  42.3028553  66.0864913  70.2928903  43.0708553  66.0064913  69.8868903
  41.7198553  65.9654913  69.6548903  42.3298553  66.0564913  70.1388903
  41.7538553  50.3324913  59.8038903  41.2988553  49.9304913  59.1778903
  42.5268553  50.4874913  59.4288903  41.8008553  50.2964913  59.6558903
  48.5798553  66.6894913  63.1938903  48.1248553  67.4064913  63.3948903
  47.9658553  66.1184913  62.9518903  48.4218553  66.7114913  63.1878903
  40.3518553  52.6994913  64.3258903  40.4258553  53.2674913  63.6678903
  40.4728553  53.1914913  65.0358903  40.3798553  52.8564913  64.3338903
  45.5768553  62.5344913  62.7378903  46.2778553  62.0524913  62.9268903
  44.9168553  61.9654913  62.7828903  45.5828553  62.3794913  62.7718903
  35.9528553  63.4444913  71.9498903  36.7938553  63.5074913  71.7278903
  35.9158553  63.8414913  72.7258903  36.0718553  63.5124913  72.0318903
  37.9158553  58.9554913  66.6988903  38.0878553  58.7454913  67.5278903
  37.2608553  58.4214913  66.4828903  37.8448553  58.8454913  66.7898903
  44.1438553  52.8694913  70.2138903  44.0488553  53.1884913  71.0198903
  43.5508553  52.2304913  70.1758903  44.0418553  52.8214913  70.3278903
  38.6658553  58.8934913  69.2888903  38.7188553  59.7404913  69.4908903
  38.3808553  58.5234913  70.0258903  38.6318553  58.9634913  69.4268903
  44.8428553  59.5884913  68.4188903  44.3288553  59.1764913  68.9898903
  44.7168553  60.4324913  68.5998903  44.7488553  59.6524913  68.5298903
  45.3998553  48.8134913  63.0498903  45.4488553  48.4954913  63.8608903
  45.7228553  48.1694913  62.5568903  45.4548553  48.6714913  63.0968903
  31.4868553  63.2644913  75.4998903  32.2428553  63.6134913  75.7578903
  31.6638553  62.4114913  75.4428903  31.6248553  63.1894913  75.5298903
  47.8638553  53.0494913  71.3578903  48.6358553  52.8244913  71.6948903
  47.3888553  53.2664913  72.0578903  47.9078553  53.0484913  71.5108903
  48.0958553  60.0274913  58.5458903  48.2148553  59.7404913  59.3608903
  48.9028553  60.0484913  58.2158903  48.2318553  59.9884913  58.6178903
  35.2318553  59.7594913  63.8768903  36.0828553  59.6794913  63.7038903
  34.8748553  59.0774913  63.4648903  35.3048553  59.6464913  63.7898903
  33.9988553  66.4844913  65.1138903  33.3258553  65.9864913  64.8688903
  34.4018553  66.6694913  64.3628903  33.9588553  66.4384913  64.9668903
  50.3298553  64.5364913  72.7998903  49.6478553  64.8464913  72.3528903
  49.9608553  64.0784913  73.4448903  50.1738553  64.5144913  72.8288903
  45.9908553  56.5644913  58.1308903  45.7708553  57.2954913  57.7088903
  45.5428553  56.6154913  58.8778903  45.8918553  56.6794913  58.1788903
  37.5998553  59.7664913  62.1118903  38.3128553  60.2614913  62.2018903
  37.8218553  59.1994913  61.4858903  37.7378553  59.7554913  62.0328903
  50.1778553  51.4254913  57.5838903  49.5158553  50.8574913  57.6068903
  49.9848553  51.9374913  56.9038903  50.0518553  51.4174913  57.4868903
  39.4028553  55.1194913  75.5278903  38.9188553  55.6964913  75.9698903
  39.3748553  55.4144913  74.7068903  39.3268553  55.2484913  75.4718903
  50.5008553  55.8034913  70.1398903  50.7158553  55.0034913  69.8638903
  49.6508553  55.8634913  69.9508903  50.4068553  55.6944913  70.0708903
  48.1798553  50.9834913  59.8628903  48.9258553  50.5764913  60.0618903
  48.4428553  51.6984913  59.4378903  48.3288553  51.0294913  59.8298903
  42.1228553  63.4694913  64.4388903  41.5998553  64.1034913  64.1458903
  42.4328553  63.1054913  63.7098903  42.0908553  63.5094913  64.2878903
  31.9938553  62.2574913  60.1098903  32.5458553  62.8264913  60.4738903
  31.7618553  61.7424913  60.7748903  32.0408553  62.2654913  60.2618903
  36.1978553  61.2574913  67.1988903  36.6648553  61.5464913  67.8768903
  36.7698553  60.7794913  66.7448903  36.3518553  61.2294913  67.2318903
  44.6338553  53.2714913  64.9358903  44.9778553  53.4234913  65.7228903
  44.1808553  52.5334913  65.0488903  44.6178553  53.1844913  65.0688903
  31.8238553  60.7064913  57.7378903  32.5798553  60.2744913  57.7958903
  31.8388553  61.2384913  58.4288903  31.9378553  60.7214913  57.8488903
  32.7638553  58.9274913  65.7428903  33.1948553  58.7984913  64.9958903
  32.5588553  59.7754913  65.7168903  32.7968553  59.0334913  65.6288903
  39.1098553  52.4914913  59.3928903  39.1078553  52.3744913  58.5278903
  38.9288553  53.3394913  59.4848903  39.0828553  52.5994913  59.2788903
  48.1638553  64.9184913  70.8898903  47.4928553  65.4324913  71.1078903
  48.2268553  65.0184913  70.0258903  48.0738553  65.0094913  70.7948903
  36.8478553  62.4434913  64.0248903  36.9738553  63.2864913  64.2118903
  37.5158553  62.0444913  64.4208903  36.9658553  62.5094913  64.1108903
  34.9778553  55.9264913  73.8868903  34.4418553  55.4204913  74.3548903
  34.9978553  55.5364913  73.1068903  34.9008553  55.7934913  73.8408903
  35.6298553  57.1534913  65.6258903  34.8488553  57.0944913  65.2428903
  35.7018553  56.4014913  66.0628903  35.5248553  57.0344913  65.6338903
  36.0598553  56.8904913  69.0938903  36.0848553  56.2154913  68.5428903
  35.4138553  57.3864913  68.7818903  35.9688553  56.8634913  68.9668903
  45.9548553  54.6034913  67.4898903  45.2928553  54.9314913  67.9528903
  46.1418553  55.2374913  66.9208903  45.8848553  54.7454913  67.4738903
  40.1598553  65.6674913  68.4858903  39.8828553  65.0264913  67.9628903
  39.9518553  66.3934913  68.0478903  40.0888553  65.6804913  68.3438903
  42.5998553  50.5094913  70.9188903  42.7488553  49.6844913  70.6758903
  42.9788553  50.5644913  71.7028903  42.6778553  50.3954913  70.9988903
  44.1478553  52.5724913  61.0008903  44.6378553  53.2894913  60.9238903
  43.3578553  52.8334913  60.7378903  44.1038553  52.7164913  60.9508903
  33.8588553  58.2454913  74.6528903  33.8218553  58.7464913  73.9388903
  34.1898553  57.4934913  74.3578903  33.9018553  58.2074913  74.5038903
  45.4618553  60.4504913  72.9108903  45.9458553  61.1684913  73.0088903
  45.8558553  60.0234913  72.2598903  45.5918553  60.4934913  72.8288903
  39.7578553  63.2954913  74.0878903  40.1118553  63.1174913  74.8648903
  39.3218553  62.5664913  73.8888903  39.7458553  63.1614913  74.1738903
  40.7298553  54.0424913  66.7258903  41.2098553  54.7414913  66.9338903
  41.1028553  53.3954913  67.1768903  40.8558553  54.0504913  66.8228903
  42.9188553  57.2114913  58.9998903  42.9108553  57.9334913  58.5098903
  42.2798553  57.3464913  59.5768903  42.8238553  57.3384913  59.0128903
  47.8908553  61.0814913  62.9808903  48.2468553  60.7314913  63.6958903
  47.8828553  60.4204913  62.4108903  47.9428553  60.9314913  63.0018903
  43.9358553  64.1474913  66.8248903  43.3328553  63.8514913  66.2678903
  44.4808553  64.5994913  66.3158903  43.9268553  64.1704913  66.6668903
  43.9488553  60.9984913  66.2248903  43.1518553  61.2224913  66.4988903
  44.2068553  60.4044913  66.8098903  43.8688553  60.9434913  66.3518903
  37.8408553  65.8104913  60.6728903  37.6938553  65.0344913  61.0438903
  38.5298553  65.6634913  60.1578903  37.9208553  65.6734913  60.6518903
  37.5118553  49.5534913  58.6608903  37.6088553  49.4464913  59.5218903
  36.8038553  50.0594913  58.5958903  37.4218553  49.6124913  58.7788903
  40.1328553  65.3264913  59.0748903  40.7548553  65.4894913  59.6648903
  40.1688553  66.0174913  58.5428903  40.2298553  65.4524913  59.0838903
  47.2088553  58.9964913  71.0708903  47.2638553  59.1214913  70.2088903
  47.9618553  59.3164913  71.3728903  47.3278553  59.0614913  70.9878903
  43.3998553  64.3454913  75.3478903  43.5638553  64.6284913  76.1568903
  43.6628553  65.0064913  74.8428903  43.4628553  64.4854913  75.3928903
  48.2408553  49.2944913  74.0578903  47.6038553  48.8944913  73.6158903
  48.2668553  48.8634913  74.8158903  48.1508553  49.1724913  74.1038903
  42.9398553  58.8024913  70.6708903  42.7848553  59.4124913  71.2748903
  43.4738553  58.2444913  71.0768903  42.9958553  58.8104913  70.8198903
  41.3238553  57.2024913  61.3288903  41.3828553  57.8524913  61.9078903
  41.1348553  56.5064913  61.8198903  41.3048553  57.1954913  61.4868903
  46.5498553  61.5314913  67.1978903  46.0708553  61.8294913  66.5318903
  46.1938553  60.7554913  67.3758903  46.4268553  61.4604913  67.1258903
  35.8198553  51.7194913  57.8408903  35.3088553  51.7724913  57.1348903
  36.6038553  51.9594913  57.5448903  35.8598553  51.7624913  57.6928903
  40.5468553  59.2494913  65.7598903  39.6998553  59.0554913  65.8408903
  40.8708553  59.0844913  66.5528903  40.4688553  59.1964913  65.8888903
  37.2988553  65.9794913  56.6458903  37.7378553  65.2824913  56.9338903
  37.5058553  66.6034913  57.2188903  37.3948553  65.9684913  56.7728903
  34.3948553  58.9424913  68.0758903  35.1168553  59.4304913  68.0388903
  34.1248553  58.9124913  67.2468903  34.4618553  59.0104913  67.9478903
  37.6248553  54.1134913  64.8108903  38.4708553  53.9234913  64.9088903
  37.2548553  53.3364913  64.6728903  37.6948553  53.9704913  64.8048903
  50.2418553  65.6974913  59.1378903  50.9358553  65.2304913  58.8898903
  49.7028553  65.0994913  59.4748903  50.2648553  65.5394913  59.1508903
  47.4808553  58.4734913  68.3168903  47.4738553  57.6974913  68.7148903
  46.6398553  58.7074913  68.3098903  47.3558553  58.3934913  68.3748903
  36.9708553  56.8854913  56.9518903  36.3608553  56.4804913  57.4258903
  36.5848553  57.0034913  56.1788903  36.8238553  56.8424913  56.9078903
  33.7898553  59.9944913  72.3538903  33.3688553  59.4764913  71.7928903
  33.4378553  60.7804913  72.2108903  33.6758553  60.0344913  72.2498903
  48.7368553  58.5444913  65.7538903  48.4508553  58.9454913  66.4738903
  49.5968553  58.4824913  65.8808903  48.8218553  58.5944913  65.8788903
  38.4258553  55.3464913  59.6618903  38.6978553  56.1724913  59.7288903
  37.5628553  55.4214913  59.5658903  38.3388553  55.4794913  59.6568903
  46.3988553  52.4684913  74.2938903  45.8738553  52.9274913  74.8178903
  46.0378553  51.6734913  74.2878903  46.2678553  52.4184913  74.3698903
  49.8678553  64.1774913  66.2828903  50.1578553  64.4344913  65.5018903
  50.5628553  64.2734913  66.8018903  50.0138553  64.2294913  66.2438903
  44.8908553  56.0374913  74.3698903  44.9638553  56.1414913  75.2328903
  44.2568553  56.5954913  74.1488903  44.8078553  56.1354913  74.4648903
  47.1588553  56.3564913  72.7348903  47.4778553  57.1424913  72.9378903
  46.7888553  56.0864913  73.4778903  47.1518553  56.4324913  72.8748903
  46.4728553  62.7804913  58.2648903  46.8068553  61.9744913  58.2998903
  45.7178553  62.7084913  58.6948903  46.4108553  62.6504913  58.3338903
  46.9548553  54.6144913  63.9238903  46.2098553  54.2914913  64.2418903
  46.9568553  55.4404913  64.2038903  46.8448553  54.6884913  64.0118903
  49.8568553  56.8984913  75.4698903  49.8048553  56.5574913  74.6688903
  50.5938553  57.3654913  75.4478903  49.9578553  56.9174913  75.3478903
  49.3948553  60.5744913  71.6758903  50.0228553  60.0254913  71.4198903
  49.3338553  61.1394913  71.0138903  49.4788553  60.5774913  71.5398903
  43.8468553  60.6554913  57.6678903  44.5308553  60.1414913  57.4988903
  43.4298553  60.7014913  56.9028903  43.8858553  60.5864913  57.5298903
  38.5288553  61.8054913  68.9718903  38.2308553  62.3974913  69.5388903
  38.5838553  62.2474913  68.2228903  38.4928553  61.9584913  68.9448903
  36.5078553  60.7554913  72.3698903  35.7018553  60.4654913  72.5368903
  36.4188553  61.6234913  72.3758903  36.3758553  60.8404913  72.3948903
  45.8668553  50.9444913  71.3848903  46.6108553  51.3964913  71.3218903
  45.3008553  51.4144913  70.9158903  45.8938553  51.0814913  71.3068903
  41.0448553  58.2284913  68.4628903  41.5208553  58.6024913  69.0908903
  40.2218553  58.3624913  68.7218903  40.9938553  58.3034913  68.5938903
  37.7548553  53.8314913  71.2038903  37.9158553  53.0874913  71.6308903
  37.7098553  53.5824913  70.3688903  37.7718553  53.6844913  71.1438903
  40.3088553  65.6214913  63.6908903  40.8548553  66.3004913  63.7448903
  39.9588553  65.7034913  62.8958903  40.3378553  65.7344913  63.5808903
  47.1518553  48.9244913  69.0548903  46.8718553  49.7494913  69.0108903
  47.8678553  48.9774913  69.5508903  47.2168553  49.0544913  69.1218903
  39.5068553  49.6394913  71.0838903  40.2118553  49.9594913  70.6818903
  39.7478553  48.8324913  71.3108903  39.6458553  49.5674913  71.0578903
  38.4918553  63.8494913  67.0798903  37.8678553  64.4314913  66.8978903
  38.7398553  63.5634913  66.2938903  38.4358553  63.8934913  66.9368903
  42.8008553  60.4834913  74.0688903  43.5578553  60.7694913  73.7428903
  42.2538553  60.5354913  73.3908903  42.8318553  60.5334913  73.9198903
  46.7098553  63.0334913  72.5728903  47.0558553  63.3034913  73.3268903
  47.0038553  63.6154913  71.9928903  46.8048553  63.1594913  72.5988903
  48.5728553  55.1794913  57.9118903  48.9508553  55.8564913  57.5118903
  47.7308553  55.4034913  57.9428903  48.5038553  55.3124913  57.8568903
  40.0858553  58.6254913  56.9948903  39.2808553  58.4484913  56.7098903
  40.0528553  59.4764913  57.1868903  39.9618553  58.7244913  56.9818903
  36.0158553  54.6924913  67.1448903  36.4558553  54.5894913  66.3988903
  36.5608553  54.3794913  67.7498903  36.1608553  54.6314913  67.1238903
  44.0318553  53.7944913  72.7368903  43.3838553  54.2644913  73.0848903
  44.5968553  53.7054913  73.3958903  44.0198553  53.8504913  72.8858903
  43.7198553  55.3314913  69.0348903  44.0218553  55.7514913  69.7378903
  43.7558553  54.4914913  69.2668903  43.7698553  55.2694913  69.1728903
  41.1448553  65.4984913  72.9598903  41.6228553  64.8984913  72.5438903
  40.7938553  65.0554913  73.6248903  41.1638553  65.3444913  72.9968903
  46.2678553  54.7784913  61.2868903  46.4748553  54.5774913  62.1108903
  47.0238553  55.0464913  60.9448903  46.4098553  54.7884913  61.3578903
  39.5628553  49.6774913  67.1918903  38.7368553  49.5284913  67.4288903
  39.5228553  49.7124913  66.3208903  39.4348553  49.6604913  67.0978903
  47.2898553  50.8614913  62.7608903  46.5758553  50.3904913  62.9318903
  47.1278553  51.2024913  61.9748903  47.1608553  50.8424913  62.6698903
  47.7328553  58.8054913  61.1408903  48.2088553  58.0764913  61.0928903
  46.9118553  58.5194913  61.0648903  47.6818553  58.6554913  61.1218903
  41.2038553  60.7174913  71.9798903  40.4088553  60.6534913  72.3308903
  41.2748553  61.5644913  71.7848903  41.0968553  60.8324913  72.0028903
  37.0338553  66.9244913  67.2968903  37.0448553  66.9834913  68.1668903
  36.6088553  66.1774913  67.1468903  36.9728553  66.8224913  67.4028903
  43.9488553  59.9724913  63.4958903  44.0248553  60.3134913  64.2948903
  44.1178553  59.1254913  63.6168903  43.9848553  59.8974913  63.6318903
  41.4708553  59.2464913  63.0608903  41.1728553  58.9314913  63.8178903
  42.1658553  59.7194913  63.2958903  41.5298553  59.2694913  63.2078903
  41.6928553  63.3644913  71.0878903  42.3798553  63.2504913  71.6128903
  41.8268553  64.1554913  70.7438903  41.8138553  63.4644913  71.1148903
  49.8688553  55.9734913  72.8988903  49.0138553  55.8514913  73.0248903
  50.0218553  55.5784913  72.1358903  49.7648553  55.8964913  72.8048903
  44.3818553  56.6384913  71.4748903  44.1268553  55.9194913  71.8968903
  45.2028553  56.7544913  71.7448903  44.4658553  56.5494913  71.5768903
  33.7978553  66.4224913  72.7388903  33.1438553  65.8534913  72.8368903
  33.4228553  67.1954913  72.8898903  33.6458553  66.4524913  72.7758903
  42.3158553  57.8284913  74.6618903  42.6388553  58.5144913  74.2298903
  41.6118553  58.1514913  75.0638903  42.2588553  57.9774913  74.6568903
  45.3998553  66.2024913  65.5908903  44.9488553  66.8454913  65.9698903
  46.1078553  66.1234913  66.0958903  45.4378553  66.2854913  65.7218903
  42.1008553  61.2924913  68.5208903  41.4068553  61.6944913  68.8638903
  42.7778553  61.7254913  68.8598903  42.0978553  61.4154913  68.6218903
  47.4778553  63.8854913  75.1008903  48.2538553  63.4954913  75.1838903
  47.0088553  63.5494913  75.7558903  47.5228553  63.7784913  75.2098903
  35.1688553  54.8304913  70.8678903  35.5438553  55.4494913  70.3808903
  35.8428553  54.3564913  71.1528903  35.3238553  54.8524913  70.8378903
  32.9438553  53.2784913  70.1428903  33.0208553  53.1094913  69.2898903
  33.6898553  53.6844913  70.3398903  33.0648553  53.3134913  70.0458903
  48.5028553  55.9184913  60.5828903  48.6058553  55.8604913  59.7188903
  49.2438553  55.5864913  60.9008903  48.6278553  55.8614913  60.5018903
  35.4978553  50.6884913  72.5538903  35.4168553  49.8444913  72.7598903
  35.1838553  50.7324913  71.7408903  35.4398553  50.5704913  72.4638903
  42.4228553  62.8834913  61.6898903  42.2178553  63.7164913  61.5308903
  41.6478553  62.5014913  61.8118903  42.2778553  62.9504913  61.6848903
  47.6048553  56.0644913  69.9388903  47.6028553  55.2014913  70.0628903
  47.6718553  56.3884913  70.7458903  47.6148553  55.9844913  70.0758903
  32.3408553  58.5044913  70.3668903  32.6608553  58.7234913  69.5858903
  32.2408553  57.6394913  70.3118903  32.3728553  58.4094913  70.2438903
  33.7968553  54.4404913  56.9848903  33.1248553  54.4544913  57.5408903
  33.8918553  53.5924913  56.8008903  33.7118553  54.3174913  57.0398903
  43.4838553  50.8644913  73.7208903  43.5758553  51.5764913  74.2148903
  42.8468553  50.4194913  74.1178903  43.4028553  50.9034913  73.8528903
  42.4778553  51.0544913  64.5748903  41.7778553  51.5724913  64.5188903
  42.5158553  50.6744913  63.7908903  42.3798553  51.0754913  64.4508903
  37.7848553  63.1454913  58.0988903  38.2258553  63.2254913  58.8468903
  36.9798553  62.9294913  58.3568903  37.7308553  63.1254913  58.2478903
  46.0758553  51.5704913  67.3748903  46.9308553  51.6694913  67.5198903
  45.7068553  52.1234913  67.9398903  46.1478553  51.6674913  67.4798903
  37.1038553  57.7964913  71.7518903  36.7078553  58.5704913  71.8268903
  36.6978553  57.4234913  71.0758903  36.9858553  57.8554913  71.6628903
  46.3798553  56.8504913  65.8658903  47.0458553  57.3914913  66.0258903
  46.0348553  57.1614913  65.1268903  46.4268553  56.9764913  65.7808903
  46.6928553  64.9164913  61.6728903  46.5188553  64.2624913  62.2228903
  47.4058553  64.6454913  61.2498903  46.7728553  64.7794913  61.6918903
  35.1138553  62.2154913  58.6998903  34.8698553  61.9084913  59.4798903
  35.0808553  61.5124913  58.1838903  35.0728553  62.0664913  58.7388903
  37.9328553  60.4604913  57.4428903  37.1148553  60.1924913  57.5828903
  37.9048553  61.3124913  57.6278903  37.8078553  60.5474913  57.4908903
  37.5328553  50.7734913  69.2018903  36.6688553  50.8574913  69.2818903
  37.7528553  50.2594913  69.8708903  37.4378553  50.7104913  69.3128903
  49.5508553  49.4084913  70.5308903  49.4988553  49.3644913  71.4008903
  50.2378553  48.9054913  70.3408903  49.6448553  49.3284913  70.6308903
  41.6358553  51.5214913  67.5758903  40.8988553  51.0674913  67.6888903
  42.2068553  51.1194913  68.0988903  41.6108553  51.3944913  67.6698903
  44.3678553  62.3694913  69.3638903  44.5738553  62.6704913  70.1558903
  44.3068553  63.0914913  68.8788903  44.3888553  62.5204913  69.4088903
  43.9018553  66.5834913  73.6098903  43.1488553  66.5654913  73.1688903
  44.0698553  67.4354913  73.6938903  43.8158553  66.7064913  73.5568903
  39.1388553  55.8504913  72.7798903  38.8168553  55.2744913  72.2098903
  38.7798553  56.6054913  72.5338903  39.0388553  55.8764913  72.6598903
  39.9348553  49.1024913  57.4068903  40.0128553  49.3494913  56.5738903
  39.1918553  49.4794913  57.6648903  39.8368553  49.1944913  57.3218903
  49.1798553  61.0084913  68.8218903  49.1478553  60.1464913  68.6868903
  48.4868553  61.3104913  68.3878903  49.0728553  60.9254913  68.7378903
  37.5738553  66.2064913  73.0278903  37.6148553  66.3324913  73.8908903
  38.2248553  65.6464913  72.8718903  37.6758553  66.1424913  73.1328903
  47.2848553  64.2684913  67.6188903  47.8118553  64.1854913  66.9278903
  46.8938553  63.4904913  67.6728903  47.3048553  64.1414913  67.5248903
  35.1668553  64.5894913  74.3878903  35.7618553  65.0204913  74.8598903
  34.8028553  65.2134913  73.8988903  35.2008553  64.7454913  74.3848903
  43.1578553  55.5204913  64.3198903  43.7088553  54.9134913  64.6198903
  42.7328553  55.7834913  65.0348903  43.1768553  55.4694913  64.4688903
  33.0938553  62.5784913  71.3168903  32.5198553  62.9944913  71.8258903
  33.8268553  63.0434913  71.4118903  33.1178553  62.7084913  71.4058903
  45.1278553  57.3514913  60.8818903  45.1958553  56.5014913  61.0628903
  44.3048553  57.4374913  60.6038903  45.0158553  57.2384913  60.8678903
  34.8798553  65.8454913  60.0918903  34.7348553  66.0014913  59.2458903
  35.7458553  65.9244913  60.1698903  34.9868553  65.8804913  59.9788903
  39.0468553  58.2424913  59.8198903  39.1468553  58.3814913  58.9648903
  39.8648553  58.1824913  60.1158903  39.1818553  58.2534913  59.7368903
  48.2068553  66.3064913  57.2998903  48.8438553  66.1724913  57.8808903
  47.8658553  65.5124913  57.1828903  48.2508553  66.1694913  57.3678903
  48.4018553  58.7244913  74.0328903  49.0358553  58.5544913  74.6068903
  48.8188553  59.1274913  73.3808903  48.5568553  58.7594913  74.0218903
  44.2818553  62.5714913  59.6218903  44.0308553  62.4434913  60.4478903
  43.9648553  61.8764913  59.2008903  44.1978553  62.4504913  59.6818903
  49.0268553  53.2884913  74.7708903  48.8308553  53.9324913  75.3258903
  48.3048553  52.7984913  74.7628903  48.8918553  53.3114913  74.8518903
  48.9258553  54.2294913  67.7418903  48.0928553  54.4794913  67.6698903
  48.8698553  53.3894913  67.9708903  48.7948553  54.1424913  67.7648903
  38.1858553  51.2174913  72.9358903  38.4198553  50.6414913  72.3228903
  37.3438553  51.0364913  73.0768903  38.0958553  51.1054913  72.8658903
  45.8128553  58.8354913  75.3878903  46.6838553  58.7994913  75.3518903
  45.5938553  59.2554913  74.6558903  45.9098553  58.8914913  75.2748903
  35.5668553  64.6604913  66.5688903  35.4878553  63.8504913  66.2528903
  35.1228553  65.1474913  65.9968903  35.4898553  64.6124913  66.4378903
  41.1678553  60.7794913  59.0518903  41.8848553  60.4324913  58.6958903
  41.1338553  61.5794913  58.7038903  41.2688553  60.8464913  58.9478903
  33.1388553  66.9044913  70.1498903  33.6318553  66.8484913  70.8678903
  33.3268553  66.1714913  69.7148903  33.2398553  66.7874913  70.1918903
  42.5768553  49.4204913  43.2906493  42.3318553  49.9084913  42.6106493
  43.4398553  49.3474913  43.1906493  42.6678553  49.4814913  43.1756493
  42.3858553  56.3364913  47.9616493  41.8618553  56.9324913  48.3246493
  42.7828553  55.9684913  48.6456493  42.3668553  56.3704913  48.1166493
  32.2548553  60.4764913  43.4176493  31.8138553  60.5944913  44.1606493
  31.9718553  59.7014913  43.1326493  32.1478553  60.3794913  43.4856493
  48.5298553  63.7774913  40.9326493  49.2308553  63.2584913  40.9286493
  47.9428553  63.3324913  40.4636493  48.5468553  63.6344913  40.8626493
  31.9978553  54.2684913  39.9246493  31.2198553  54.4304913  39.5646493
  32.0368553  53.3974913  39.9466493  31.8888553  54.1634913  39.8746493
  35.1368553  59.5314913  38.5966493  34.7448553  59.1604913  37.9106493
  35.0568553  58.9334913  39.2256493  35.0668553  59.3884913  38.5876493
  45.0568553  57.4034913  44.6376493  45.1368553  57.4074913  43.7686493
  44.4728553  56.7714913  44.7866493  44.9818553  57.3104913  44.5316493
  34.7638553  61.1724913  42.4966493  35.3718553  61.0024913  43.0996493
  34.0128553  61.0324913  42.9176493  34.7428553  61.1264913  42.6476493
  39.0458553  50.5074913  42.4456493  38.9758553  51.1844913  41.8996493
  39.7868553  50.1194913  42.1966493  39.1448553  50.5504913  42.3276493
  33.6548553  64.2634913  38.5736493  34.1218553  64.3474913  37.8416493
  34.1098553  63.6854913  39.0426493  33.7908553  64.1904913  38.5346493
  32.1948553  63.2114913  49.6726493  32.3238553  62.9314913  50.4886493
  31.5848553  62.6704913  49.3636493  32.1238553  63.0904913  49.7476493
  38.7688553  60.7364913  54.7396493  38.5328553  60.7334913  55.5796493
  38.0208553  60.5884913  54.3156493  38.6228553  60.7134913  54.8006493
  33.6408553  57.7324913  43.8746493  33.1788553  57.3404913  43.2476493
  34.3408553  57.2194913  43.9666493  33.6758553  57.5994913  43.7956493
  38.1488553  53.3424913  49.2216493  38.8268553  53.3604913  48.6726493
  38.1038553  52.5064913  49.4666493  38.2418553  53.2214913  49.1766493
  38.7508553  63.9284913  52.0026493  38.8888553  64.6884913  51.5956493
  39.5418553  63.5634913  52.0296493  38.8878553  63.9874913  51.9466493
  35.6418553  55.8324913  43.8976493  36.4588553  55.6454913  44.1406493
  35.1648553  55.2184913  44.2936493  35.6918553  55.7144913  43.9926493
  39.8458553  61.8134913  46.5076493  40.1938553  61.0144913  46.5376493
  40.5108553  62.3174913  46.2526493  39.9958553  61.7694913  46.4746493
  39.9028553  61.2624913  42.7186493  40.2338553  60.6184913  43.2046493
  40.1428553  61.0514913  41.9076493  39.9868553  61.1364913  42.6706493
  41.8708553  55.3934913  54.0576493  41.0228553  55.2944913  53.8796493
  41.8998553  56.1384913  54.5116493  41.7498553  55.4894913  54.0986493
  36.2388553  50.9264913  43.1636493  35.9428553  51.4274913  42.5136493
  37.1058553  51.0044913  43.1066493  36.3228553  51.0124913  43.0596493
  46.4288553  48.3534913  53.1716493  46.2708553  49.1224913  52.7896493
  45.6568553  48.1334913  53.5156493  46.2908553  48.4344913  53.1666493
  39.2178553  50.0684913  45.3866493  39.2908553  50.9284913  45.5156493
  39.1798553  49.9934913  44.5186493  39.2228553  50.1844913  45.2776493
  43.8908553  52.9944913  37.6856493  43.4408553  53.6754913  37.9926493
  44.0048553  52.4904913  38.3886493  43.8418553  53.0204913  37.8346493
  32.0968553  55.4934913  46.8876493  31.8408553  56.3244913  46.8126493
  31.4328553  55.1104913  47.3046493  31.9608553  55.5594913  46.9386493
  32.0068553  65.2034913  44.7876493  31.4148553  65.7614913  44.4746493
  32.4328553  64.9344913  44.0756493  31.9828553  65.2454913  44.6366493
  37.8468553  63.0474913  42.2676493  37.2678553  62.7724913  42.8596493
  38.4708553  62.4384913  42.2926493  37.8538553  62.9174913  42.3586493
  43.9898553  65.3354913  39.7896493  44.7168553  65.8074913  39.8916493
  44.2188553  64.5414913  40.0696493  44.1318553  65.2884913  39.8466493
  42.1578553  65.7274913  41.7796493  42.3718553  66.2544913  42.4416493
  42.9248553  65.5534913  41.4006493  42.3028553  65.7794913  41.8216493
  35.1258553  50.3104913  47.3786493  34.6048553  49.6824913  47.0706493
  35.7168553  49.8734913  47.8496493  35.1368553  50.1524913  47.4026493
  38.4318553  52.4434913  56.6766493  38.5488553  51.9894913  55.9406493
  38.7198553  53.2414913  56.4736493  38.4918553  52.4944913  56.5376493
  33.5518553  63.8734913  42.7186493  34.2078553  63.2984913  42.7336493
  33.9408553  64.6224913  42.4976493  33.7068553  63.8984913  42.6886493
  49.2848553  52.9674913  43.9806493  48.9388553  53.6454913  44.4066493
  48.6488553  52.3694913  43.9966493  49.1398553  52.9794913  44.0456493
  44.5968553  65.7374913  50.0846493  45.3408553  66.1934913  50.0746493
  44.4758553  65.5234913  49.2476493  44.6888553  65.7734913  49.9596493
  34.1648553  52.0404913  55.6606493  33.3868553  51.6504913  55.5886493
  34.6558553  51.6284913  55.0696493  34.1218553  51.9214913  55.5626493
  34.3698553  62.3604913  46.2186493  34.7928553  62.0044913  45.5446493
  34.6938553  61.9384913  46.9106493  34.4798553  62.2454913  46.2216493
  37.6008553  65.2124913  45.5146493  38.4448553  65.3164913  45.3196493
  37.3038553  66.0304913  45.5826493  37.6818553  65.3484913  45.4956493
  40.8138553  49.6834913  54.8286493  40.9918553  48.8744913  54.5536493
  40.6708553  50.1244913  54.0896493  40.8188553  49.6294913  54.6786493
  41.4078553  54.6094913  43.6016493  41.6948553  54.3774913  42.8116493
  42.1398553  54.6884913  44.0706493  41.5578553  54.5864913  43.5546493
  42.1298553  54.9484913  38.7226493  42.4108553  55.7364913  38.9716493
  41.3538553  55.1134913  38.3596493  42.0568553  55.0894913  38.7056493
  46.1708553  66.9224913  40.1896493  46.8358553  66.7744913  39.6446493
  46.5308553  66.8394913  40.9796493  46.3228553  66.8884913  40.2256493
  36.5988553  66.4314913  51.2546493  36.8908553  66.3644913  52.0746493
  35.9728553  65.8264913  51.2096493  36.5498553  66.3324913  51.3696493
  48.9598553  51.2904913  49.3496493  49.7168553  51.3624913  48.9216493
  49.0228553  50.5174913  49.7486493  49.0808553  51.1874913  49.3446493
  31.5128553  52.5884913  53.2466493  31.5088553  53.1754913  53.8926493
  32.1068553  52.9004913  52.6896493  31.5998553  52.7214913  53.2596493
  43.8508553  62.9224913  53.7886493  43.8168553  63.3044913  54.5726493
  44.7048553  62.8804913  53.6176493  43.9718553  62.9724913  53.8796493
  40.9888553  63.1194913  38.5386493  40.8078553  63.6644913  39.1956493
  41.7548553  63.4094913  38.2376493  41.0748553  63.2434913  38.5916493
  44.4958553  51.0154913  39.5926493  45.0358553  50.3334913  39.6686493
  44.5578553  51.4134913  40.3666493  44.5848553  50.9734913  39.7186493
  32.4498553  52.1834913  42.1616493  32.3358553  51.3194913  42.1926493
  31.9748553  52.4774913  42.8316493  32.3628553  52.0994913  42.2646493
  34.5918553  64.5934913  50.3766493  33.8938553  64.0854913  50.5026493
  34.8518553  64.3884913  49.5686493  34.5268553  64.4884913  50.2756493
  41.7538553  53.3914913  40.9066493  41.2458553  52.7294913  40.6526493
  41.8058553  53.8954913  40.1966493  41.6868553  53.3684913  40.7646493
  42.3028553  66.0864913  51.2866493  43.0708553  66.0064913  50.8806493
  41.7198553  65.9654913  50.6486493  42.3298553  66.0564913  51.1326493
  41.7538553  50.3324913  40.7976493  41.2988553  49.9304913  40.1716493
  42.5268553  50.4874913  40.4226493  41.8008553  50.2964913  40.6496493
  48.5798553  66.6894913  44.1876493  48.1248553  67.4064913  44.3886493
  47.9658553  66.1184913  43.9456493  48.4218553  66.7114913  44.1816493
  40.3518553  52.6994913  45.3196493  40.4258553  53.2674913  44.6616493
  40.4728553  53.1914913  46.0296493  40.3798553  52.8564913  45.3276493
  45.5768553  62.5344913  43.7316493  46.2778553  62.0524913  43.9206493
  44.9168553  61.9654913  43.7766493  45.5828553  62.3794913  43.7656493
  35.9528553  63.4444913  52.9436493  36.7938553  63.5074913  52.7216493
  35.9158553  63.8414913  53.7196493  36.0718553  63.5124913  53.0256493
  34.9598553  48.5224913  43.6676493  35.4958553  49.2104913  43.6576493
  34.9628553  48.2484913  42.8396493  35.0388553  48.5834913  43.5436493
  37.9158553  58.9554913  47.6926493  38.0878553  58.7454913  48.5216493
  37.2608553  58.4214913  47.4766493  37.8448553  58.8454913  47.7836493
  44.1438553  52.8694913  51.2076493  44.0488553  53.1884913  52.0136493
  43.5508553  52.2304913  51.1696493  44.0418553  52.8214913  51.3216493
  38.6658553  58.8934913  50.2826493  38.7188553  59.7404913  50.4846493
  38.3808553  58.5234913  51.0196493  38.6318553  58.9634913  50.4206493
  44.8428553  59.5884913  49.4126493  44.3288553  59.1764913  49.9836493
  44.7168553  60.4324913  49.5936493  44.7488553  59.6524913  49.5236493
  45.3998553  48.8134913  44.0436493  45.4488553  48.4954913  44.8546493
  45.7228553  48.1694913  43.5506493  45.4548553  48.6714913  44.0906493
  31.4868553  63.2644913  56.4936493  32.2428553  63.6134913  56.7516493
  31.6638553  62.4114913  56.4366493  31.6248553  63.1894913  56.5236493
  47.8638553  53.0494913  52.3516493  48.6358553  52.8244913  52.6886493
  47.3888553  53.2664913  53.0516493  47.9078553  53.0484913  52.5046493
  35.4078553  52.3324913  45.3216493  35.6798553  51.9024913  44.6136493
  35.2318553  51.6964913  45.8926493  35.4218553  52.1754913  45.3016493
  48.0958553  60.0274913  39.5396493  48.2148553  59.7404913  40.3546493
  48.9028553  60.0484913  39.2096493  48.2318553  59.9884913  39.6116493
  35.2318553  59.7594913  44.8706493  36.0828553  59.6794913  44.6976493
  34.8748553  59.0774913  44.4586493  35.3048553  59.6464913  44.7836493
  33.9988553  66.4844913  46.1076493  33.3258553  65.9864913  45.8626493
  34.4018553  66.6694913  45.3566493  33.9588553  66.4384913  45.9606493
  33.5488553  53.4344913  48.4036493  34.3918553  53.6544913  48.3606493
  33.1598553  54.0074913  47.8726493  33.6158553  53.5514913  48.3186493
  50.3298553  64.5364913  53.7936493  49.6478553  64.8464913  53.3466493
  49.9608553  64.0784913  54.4386493  50.1738553  64.5144913  53.8226493
  45.9908553  56.5644913  39.1246493  45.7708553  57.2954913  38.7026493
  45.5428553  56.6154913  39.8716493  45.8918553  56.6794913  39.1726493
  37.5998553  59.7664913  43.1056493  38.3128553  60.2614913  43.1956493
  37.8218553  59.1994913  42.4796493  37.7378553  59.7554913  43.0266493
  50.1778553  51.4254913  38.5776493  49.5158553  50.8574913  38.6006493
  49.9848553  51.9374913  37.8976493  50.0518553  51.4174913  38.4806493
  31.7558553  61.4094913  46.4256493  31.0888553  61.8974913  46.7016493
  32.4358553  61.9544913  46.4546493  31.7578553  61.5614913  46.4706493
  39.4028553  55.1194913  56.5216493  38.9188553  55.6964913  56.9636493
  39.3748553  55.4144913  55.7006493  39.3268553  55.2484913  56.4656493
  50.5008553  55.8034913  51.1336493  50.7158553  55.0034913  50.8576493
  49.6508553  55.8634913  50.9446493  50.4068553  55.6944913  51.0646493
  31.8218553  58.0934913  41.5286493  31.6368553  57.2544913  41.6806493
  32.4808553  58.0574913  40.9586493  31.8918553  57.9644913  41.4666493
  48.1798553  50.9834913  40.8566493  48.9258553  50.5764913  41.0556493
  48.4428553  51.6984913  40.4316493  48.3288553  51.0294913  40.8236493
  42.1228553  63.4694913  45.4326493  41.5998553  64.1034913  45.1396493
  42.4328553  63.1054913  44.7036493  42.0908553  63.5094913  45.2816493
  31.9938553  62.2574913  41.1036493  32.5458553  62.8264913  41.4676493
  31.7618553  61.7424913  41.7686493  32.0408553  62.2654913  41.2556493
  36.1978553  61.2574913  48.1926493  36.6648553  61.5464913  48.8706493
  36.7698553  60.7794913  47.7386493  36.3518553  61.2294913  48.2256493
  44.6338553  53.2714913  45.9296493  44.9778553  53.4234913  46.7166493
  44.1808553  52.5334913  46.0426493  44.6178553  53.1844913  46.0626493
  31.8238553  60.7064913  38.7316493  32.5798553  60.2744913  38.7896493
  31.8388553  61.2384913  39.4226493  31.9378553  60.7214913  38.8426493
  32.7638553  58.9274913  46.7366493  33.1948553  58.7984913  45.9896493
  32.5588553  59.7754913  46.7106493  32.7968553  59.0334913  46.6226493
  39.1098553  52.4914913  40.3866493  39.1078553  52.3744913  39.5216493
  38.9288553  53.3394913  40.4786493  39.0828553  52.5994913  40.2726493
  48.1638553  64.9184913  51.8836493  47.4928553  65.4324913  52.1016493
  48.2268553  65.0184913  51.0196493  48.0738553  65.0094913  51.7886493
  36.8478553  62.4434913  45.0186493  36.9738553  63.2864913  45.2056493
  37.5158553  62.0444913  45.4146493  36.9658553  62.5094913  45.1046493
  34.9778553  55.9264913  54.8806493  34.4418553  55.4204913  55.3486493
  34.9978553  55.5364913  54.1006493  34.9008553  55.7934913  54.8346493
  35.4628553  55.3234913  40.0206493  35.3348553  54.8754913  40.7586493
  34.8808553  54.9814913  39.4686493  35.3578553  55.2064913  40.0486493
  35.6298553  57.1534913  46.6196493  34.8488553  57.0944913  46.2366493
  35.7018553  56.4014913  47.0566493  35.5248553  57.0344913  46.6276493
  36.0598553  56.8904913  50.0876493  36.0848553  56.2154913  49.5366493
  35.4138553  57.3864913  49.7756493  35.9688553  56.8634913  49.9606493
  45.9548553  54.6034913  48.4836493  45.2928553  54.9314913  48.9466493
  46.1418553  55.2374913  47.9146493  45.8848553  54.7454913  48.4676493
  40.1598553  65.6674913  49.4796493  39.8828553  65.0264913  48.9566493
  39.9518553  66.3934913  49.0416493  40.0888553  65.6804913  49.3376493
  42.5998553  50.5094913  51.9126493  42.7488553  49.6844913  51.6696493
  42.9788553  50.5644913  52.6966493  42.6778553  50.3954913  51.9926493
  44.1478553  52.5724913  41.9946493  44.6378553  53.2894913  41.9176493
  43.3578553  52.8334913  41.7316493  44.1038553  52.7164913  41.9446493
  33.8588553  58.2454913  55.6466493  33.8218553  58.7464913  54.9326493
  34.1898553  57.4934913  55.3516493  33.9018553  58.2074913  55.4976493
  45.4618553  60.4504913  53.9046493  45.9458553  61.1684913  54.0026493
  45.8558553  60.0234913  53.2536493  45.5918553  60.4934913  53.8226493
  39.7578553  63.2954913  55.0816493  40.1118553  63.1174913  55.8586493
  39.3218553  62.5664913  54.8826493  39.7458553  63.1614913  55.1676493
  40.7298553  54.0424913  47.7196493  41.2098553  54.7414913  47.9276493
  41.1028553  53.3954913  48.1706493  40.8558553  54.0504913  47.8166493
  42.9188553  57.2114913  39.9936493  42.9108553  57.9334913  39.5036493
  42.2798553  57.3464913  40.5706493  42.8238553  57.3384913  40.0066493
  47.8908553  61.0814913  43.9746493  48.2468553  60.7314913  44.6896493
  47.8828553  60.4204913  43.4046493  47.9428553  60.9314913  43.9956493
  43.9358553  64.1474913  47.8186493  43.3328553  63.8514913  47.2616493
  44.4808553  64.5994913  47.3096493  43.9268553  64.1704913  47.6606493
  43.9488553  60.9984913  47.2186493  43.1518553  61.2224913  47.4926493
  44.2068553  60.4044913  47.8036493  43.8688553  60.9434913  47.3456493
  37.8408553  65.8104913  41.6666493  37.6938553  65.0344913  42.0376493
  38.5298553  65.6634913  41.1516493  37.9208553  65.6734913  41.6456493
  37.5118553  49.5534913  39.6546493  37.6088553  49.4464913  40.5156493
  36.8038553  50.0594913  39.5896493  37.4218553  49.6124913  39.7726493
  40.1328553  65.3264913  40.0686493  40.7548553  65.4894913  40.6586493
  40.1688553  66.0174913  39.5366493  40.2298553  65.4524913  40.0776493
  47.2088553  58.9964913  52.0646493  47.2638553  59.1214913  51.2026493
  47.9618553  59.3164913  52.3666493  47.3278553  59.0614913  51.9816493
  43.3998553  64.3454913  56.3416493  43.5638553  64.6284913  57.1506493
  43.6628553  65.0064913  55.8366493  43.4628553  64.4854913  56.3866493
  48.2408553  49.2944913  55.0516493  47.6038553  48.8944913  54.6096493
  48.2668553  48.8634913  55.8096493  48.1508553  49.1724913  55.0976493
  34.6338553  57.8604913  40.8976493  34.9578553  57.0814913  40.6756493
  35.2798553  58.2284913  41.3526493  34.7768553  57.7994913  40.9316493
  42.9398553  58.8024913  51.6646493  42.7848553  59.4124913  52.2686493
  43.4738553  58.2444913  52.0706493  42.9958553  58.8104913  51.8136493
  31.6308553  49.5214913  41.8656493  31.7598553  48.8134913  41.3736493
  31.2638553  49.2034913  42.5906493  31.5958553  49.3694913  41.9006493
  41.3238553  57.2024913  42.3226493  41.3828553  57.8524913  42.9016493
  41.1348553  56.5064913  42.8136493  41.3048553  57.1954913  42.4806493
  46.5498553  61.5314913  48.1916493  46.0708553  61.8294913  47.5256493
  46.1938553  60.7554913  48.3696493  46.4268553  61.4604913  48.1196493
  35.8198553  51.7194913  38.8346493  35.3088553  51.7724913  38.1286493
  36.6038553  51.9594913  38.5386493  35.8598553  51.7624913  38.6866493
  40.5468553  59.2494913  46.7536493  39.6998553  59.0554913  46.8346493
  40.8708553  59.0844913  47.5466493  40.4688553  59.1964913  46.8826493
  37.2988553  65.9794913  37.6396493  37.7378553  65.2824913  37.9276493
  37.5058553  66.6034913  38.2126493  37.3948553  65.9684913  37.7666493
  34.3948553  58.9424913  49.0696493  35.1168553  59.4304913  49.0326493
  34.1248553  58.9124913  48.2406493  34.4618553  59.0104913  48.9416493
  37.6248553  54.1134913  45.8046493  38.4708553  53.9234913  45.9026493
  37.2548553  53.3364913  45.6666493  37.6948553  53.9704913  45.7986493
  50.2418553  65.6974913  40.1316493  50.9358553  65.2304913  39.8836493
  49.7028553  65.0994913  40.4686493  50.2648553  65.5394913  40.1446493
  32.4458553  55.4514913  42.4596493  32.9348553  55.1594913  43.1206493
  32.5748553  54.8584913  41.8326493  32.5368553  55.3204913  42.4646493
  47.4808553  58.4734913  49.3106493  47.4738553  57.6974913  49.7086493
  46.6398553  58.7074913  49.3036493  47.3558553  58.3934913  49.3686493
  36.9708553  56.8854913  37.9456493  36.3608553  56.4804913  38.4196493
  36.5848553  57.0034913  37.1726493  36.8238553  56.8424913  37.9016493
  33.7898553  59.9944913  53.3476493  33.3688553  59.4764913  52.7866493
  33.4378553  60.7804913  53.2046493  33.6758553  60.0344913  53.2436493
  48.7368553  58.5444913  46.7476493  48.4508553  58.9454913  47.4676493
  49.5968553  58.4824913  46.8746493  48.8218553  58.5944913  46.8726493
  38.4258553  55.3464913  40.6556493  38.6978553  56.1724913  40.7226493
  37.5628553  55.4214913  40.5596493  38.3388553  55.4794913  40.6506493
  46.3988553  52.4684913  55.2876493  45.8738553  52.9274913  55.8116493
  46.0378553  51.6734913  55.2816493  46.2678553  52.4184913  55.3636493
  49.8678553  64.1774913  47.2766493  50.1578553  64.4344913  46.4956493
  50.5628553  64.2734913  47.7956493  50.0138553  64.2294913  47.2376493
  44.8908553  56.0374913  55.3636493  44.9638553  56.1414913  56.2266493
  44.2568553  56.5954913  55.1426493  44.8078553  56.1354913  55.4586493
  47.1588553  56.3564913  53.7286493  47.4778553  57.1424913  53.9316493
  46.7888553  56.0864913  54.4716493  47.1518553  56.4324913  53.8686493
  46.4728553  62.7804913  39.2586493  46.8068553  61.9744913  39.2936493
  45.7178553  62.7084913  39.6886493  46.4108553  62.6504913  39.3276493
  46.9548553  54.6144913  44.9176493  46.2098553  54.2914913  45.2356493
  46.9568553  55.4404913  45.1976493  46.8448553  54.6884913  45.0056493
  49.8568553  56.8984913  56.4636493  49.8048553  56.5574913  55.6626493
  50.5938553  57.3654913  56.4416493  49.9578553  56.9174913  56.3416493
  49.3948553  60.5744913  52.6696493  50.0228553  60.0254913  52.4136493
  49.3338553  61.1394913  52.0076493  49.4788553  60.5774913  52.5336493
  43.8468553  60.6554913  38.6616493  44.5308553  60.1414913  38.4926493
  43.4298553  60.7014913  37.8966493  43.8858553  60.5864913  38.5236493
  38.5288553  61.8054913  49.9656493  38.2308553  62.3974913  50.5326493
  38.5838553  62.2474913  49.2166493  38.4928553  61.9584913  49.9386493
  36.5078553  60.7554913  53.3636493  35.7018553  60.4654913  53.5306493
  36.4188553  61.6234913  53.3696493  36.3758553  60.8404913  53.3886493
  45.8668553  50.9444913  52.3786493  46.6108553  51.3964913  52.3156493
  45.3008553  51.4144913  51.9096493  45.8938553  51.0814913  52.3006493
  41.0448553  58.2284913  49.4566493  41.5208553  58.6024913  50.0846493
  40.2218553  58.3624913  49.7156493  40.9938553  58.3034913  49.5876493
  37.7548553  53.8314913  52.1976493  37.9158553  53.0874913  52.6246493
  37.7098553  53.5824913  51.3626493  37.7718553  53.6844913  52.1376493
  40.3088553  65.6214913  44.6846493  40.8548553  66.3004913  44.7386493
  39.9588553  65.7034913  43.8896493  40.3378553  65.7344913  44.5746493
  47.1518553  48.9244913  50.0486493  46.8718553  49.7494913  50.0046493
  47.8678553  48.9774913  50.5446493  47.2168553  49.0544913  50.1156493
  39.5068553  49.6394913  52.0776493  40.2118553  49.9594913  51.6756493
  39.7478553  48.8324913  52.3046493  39.6458553  49.5674913  52.0516493
  38.4918553  63.8494913  48.0736493  37.8678553  64.4314913  47.8916493
  38.7398553  63.5634913  47.2876493  38.4358553  63.8934913  47.9306493
  42.8008553  60.4834913  55.0626493  43.5578553  60.7694913  54.7366493
  42.2538553  60.5354913  54.3846493  42.8318553  60.5334913  54.9136493
  46.7098553  63.0334913  53.5666493  47.0558553  63.3034913  54.3206493
  47.0038553  63.6154913  52.9866493  46.8048553  63.1594913  53.5926493
  48.5728553  55.1794913  38.9056493  48.9508553  55.8564913  38.5056493
  47.7308553  55.4034913  38.9366493  48.5038553  55.3124913  38.8506493
  40.0858553  58.6254913  37.9886493  39.2808553  58.4484913  37.7036493
  40.0528553  59.4764913  38.1806493  39.9618553  58.7244913  37.9756493
  36.0158553  54.6924913  48.1386493  36.4558553  54.5894913  47.3926493
  36.5608553  54.3794913  48.7436493  36.1608553  54.6314913  48.1176493
  44.0318553  53.7944913  53.7306493  43.3838553  54.2644913  54.0786493
  44.5968553  53.7054913  54.3896493  44.0198553  53.8504913  53.8796493
  43.7198553  55.3314913  50.0286493  44.0218553  55.7514913  50.7316493
  43.7558553  54.4914913  50.2606493  43.7698553  55.2694913  50.1666493
  41.1448553  65.4984913  53.9536493  41.6228553  64.8984913  53.5376493
  40.7938553  65.0554913  54.6186493  41.1638553  65.3444913  53.9906493
  46.2678553  54.7784913  42.2806493  46.4748553  54.5774913  43.1046493
  47.0238553  55.0464913  41.9386493  46.4098553  54.7884913  42.3516493
  39.5628553  49.6774913  48.1856493  38.7368553  49.5284913  48.4226493
  39.5228553  49.7124913  47.3146493  39.4348553  49.6604913  48.0916493
  47.2898553  50.8614913  43.7546493  46.5758553  50.3904913  43.9256493
  47.1278553  51.2024913  42.9686493  47.1608553  50.8424913  43.6636493
  47.7328553  58.8054913  42.1346493  48.2088553  58.0764913  42.0866493
  46.9118553  58.5194913  42.0586493  47.6818553  58.6554913  42.1156493
  41.2038553  60.7174913  52.9736493  40.4088553  60.6534913  53.3246493
  41.2748553  61.5644913  52.7786493  41.0968553  60.8324913  52.9966493
  32.1278553  50.0754913  54.2206493  31.9878553  50.8704913  53.8896493
  31.3418553  49.8324913  54.5096493  31.9908553  50.1574913  54.2146493
  37.0338553  66.9244913  48.2906493  37.0448553  66.9834913  49.1606493
  36.6088553  66.1774913  48.1406493  36.9728553  66.8224913  48.3966493
  35.1918553  52.8194913  41.4456493  35.3178553  52.4904913  40.6476493
  34.3798553  52.5704913  41.6446493  35.0908553  52.7344913  41.3576493
  43.9488553  59.9724913  44.4896493  44.0248553  60.3134913  45.2886493
  44.1178553  59.1254913  44.6106493  43.9848553  59.8974913  44.6256493
  41.4708553  59.2464913  44.0546493  41.1728553  58.9314913  44.8116493
  42.1658553  59.7194913  44.2896493  41.5298553  59.2694913  44.2016493
  41.6928553  63.3644913  52.0816493  42.3798553  63.2504913  52.6066493
  41.8268553  64.1554913  51.7376493  41.8138553  63.4644913  52.1086493
  49.8688553  55.9734913  53.8926493  49.0138553  55.8514913  54.0186493
  50.0218553  55.5784913  53.1296493  49.7648553  55.8964913  53.7986493
  44.3818553  56.6384913  52.4686493  44.1268553  55.9194913  52.8906493
  45.2028553  56.7544913  52.7386493  44.4658553  56.5494913  52.5706493
  33.7978553  66.4224913  53.7326493  33.1438553  65.8534913  53.8306493
  33.4228553  67.1954913  53.8836493  33.6458553  66.4524913  53.7696493
  42.3158553  57.8284913  55.6556493  42.6388553  58.5144913  55.2236493
  41.6118553  58.1514913  56.0576493  42.2588553  57.9774913  55.6506493
  45.3998553  66.2024913  46.5846493  44.9488553  66.8454913  46.9636493
  46.1078553  66.1234913  47.0896493  45.4378553  66.2854913  46.7156493
  42.1008553  61.2924913  49.5146493  41.4068553  61.6944913  49.8576493
  42.7778553  61.7254913  49.8536493  42.0978553  61.4154913  49.6156493
  47.4778553  63.8854913  56.0946493  48.2538553  63.4954913  56.1776493
  47.0088553  63.5494913  56.7496493  47.5228553  63.7784913  56.2036493
  35.1688553  54.8304913  51.8616493  35.5438553  55.4494913  51.3746493
  35.8428553  54.3564913  52.1466493  35.3238553  54.8524913  51.8316493
  32.9438553  53.2784913  51.1366493  33.0208553  53.1094913  50.2836493
  33.6898553  53.6844913  51.3336493  33.0648553  53.3134913  51.0396493
  48.5028553  55.9184913  41.5766493  48.6058553  55.8604913  40.7126493
  49.2438553  55.5864913  41.8946493  48.6278553  55.8614913  41.4956493
  35.4978553  50.6884913  53.5476493  35.4168553  49.8444913  53.7536493
  35.1838553  50.7324913  52.7346493  35.4398553  50.5704913  53.4576493
  42.4228553  62.8834913  42.6836493  42.2178553  63.7164913  42.5246493
  41.6478553  62.5014913  42.8056493  42.2778553  62.9504913  42.6786493
  47.6048553  56.0644913  50.9326493  47.6028553  55.2014913  51.0566493
  47.6718553  56.3884913  51.7396493  47.6148553  55.9844913  51.0696493
  32.3408553  58.5044913  51.3606493  32.6608553  58.7234913  50.5796493
  32.2408553  57.6394913  51.3056493  32.3728553  58.4094913  51.2376493
  33.7968553  54.4404913  37.9786493  33.1248553  54.4544913  38.5346493
  33.8918553  53.5924913  37.7946493  33.7118553  54.3174913  38.0336493
  43.4838553  50.8644913  54.7146493  43.5758553  51.5764913  55.2086493
  42.8468553  50.4194913  55.1116493  43.4028553  50.9034913  54.8466493
  42.4778553  51.0544913  45.5686493  41.7778553  51.5724913  45.5126493
  42.5158553  50.6744913  44.7846493  42.3798553  51.0754913  45.4446493
  37.7848553  63.1454913  39.0926493  38.2258553  63.2254913  39.8406493
  36.9798553  62.9294913  39.3506493  37.7308553  63.1254913  39.2416493
  46.0758553  51.5704913  48.3686493  46.9308553  51.6694913  48.5136493
  45.7068553  52.1234913  48.9336493  46.1478553  51.6674913  48.4736493
  37.1038553  57.7964913  52.7456493  36.7078553  58.5704913  52.8206493
  36.6978553  57.4234913  52.0696493  36.9858553  57.8554913  52.6566493
  46.3798553  56.8504913  46.8596493  47.0458553  57.3914913  47.0196493
  46.0348553  57.1614913  46.1206493  46.4268553  56.9764913  46.7746493
  46.6928553  64.9164913  42.6666493  46.5188553  64.2624913  43.2166493
  47.4058553  64.6454913  42.2436493  46.7728553  64.7794913  42.6856493
  35.1138553  62.2154913  39.6936493  34.8698553  61.9084913  40.4736493
  35.0808553  61.5124913  39.1776493  35.0728553  62.0664913  39.7326493
  37.9328553  60.4604913  38.4366493  37.1148553  60.1924913  38.5766493
  37.9048553  61.3124913  38.6216493  37.8078553  60.5474913  38.4846493
  37.5328553  50.7734913  50.1956493  36.6688553  50.8574913  50.2756493
  37.7528553  50.2594913  50.8646493  37.4378553  50.7104913  50.3066493
  49.5508553  49.4084913  51.5246493  49.4988553  49.3644913  52.3946493
  50.2378553  48.9054913  51.3346493  49.6448553  49.3284913  51.6246493
  41.6358553  51.5214913  48.5696493  40.8988553  51.0674913  48.6826493
  42.2068553  51.1194913  49.0926493  41.6108553  51.3944913  48.6636493
  44.3678553  62.3694913  50.3576493  44.5738553  62.6704913  51.1496493
  44.3068553  63.0914913  49.8726493  44.3888553  62.5204913  50.4026493
  43.9018553  66.5834913  54.6036493  43.1488553  66.5654913  54.1626493
  44.0698553  67.4354913  54.6876493  43.8158553  66.7064913  54.5506493
  39.1388553  55.8504913  53.7736493  38.8168553  55.2744913  53.2036493
  38.7798553  56.6054913  53.5276493  39.0388553  55.8764913  53.6536493
  39.9348553  49.1024913  38.4006493  40.0128553  49.3494913  37.5676493
  39.1918553  49.4794913  38.6586493  39.8368553  49.1944913  38.3156493
  49.1798553  61.0084913  49.8156493  49.1478553  60.1464913  49.6806493
  48.4868553  61.3104913  49.3816493  49.0728553  60.9254913  49.7316493
  37.5738553  66.2064913  54.0216493  37.6148553  66.3324913  54.8846493
  38.2248553  65.6464913  53.8656493  37.6758553  66.1424913  54.1266493
  47.2848553  64.2684913  48.6126493  47.8118553  64.1854913  47.9216493
  46.8938553  63.4904913  48.6666493  47.3048553  64.1414913  48.5186493
  34.7528553  50.8564913  50.8436493  34.4098553  50.0894913  50.6096493
  34.0578553  51.3804913  50.9076493  34.5998553  50.8204913  50.8186493
  43.7988553  49.7124913  47.8206493  44.4688553  50.2564913  47.9476493
  43.2958553  50.1364913  47.2476493  43.8238553  49.8554913  47.7546493
  35.1668553  64.5894913  55.3816493  35.7618553  65.0204913  55.8536493
  34.8028553  65.2134913  54.8926493  35.2008553  64.7454913  55.3786493
  43.1578553  55.5204913  45.3136493  43.7088553  54.9134913  45.6136493
  42.7328553  55.7834913  46.0286493  43.1768553  55.4694913  45.4626493
  33.4058553  54.1704913  44.7996493  33.0378553  54.4724913  45.5306493
  33.9398553  53.5414913  45.0836493  33.4298553  54.1224913  44.9496493
  33.0938553  62.5784913  52.3106493  32.5198553  62.9944913  52.8196493
  33.8268553  63.0434913  52.4056493  33.1178553  62.7084913  52.3996493
  45.1278553  57.3514913  41.8756493  45.1958553  56.5014913  42.0566493
  44.3048553  57.4374913  41.5976493  45.0158553  57.2384913  41.8616493
  34.8798553  65.8454913  41.0856493  34.7348553  66.0014913  40.2396493
  35.7458553  65.9244913  41.1636493  34.9868553  65.8804913  40.9726493
  39.0468553  58.2424913  40.8136493  39.1468553  58.3814913  39.9586493
  39.8648553  58.1824913  41.1096493  39.1818553  58.2534913  40.7306493
  48.2068553  66.3064913  38.2936493  48.8438553  66.1724913  38.8746493
  47.8658553  65.5124913  38.1766493  48.2508553  66.1694913  38.3616493
  48.4018553  58.7244913  55.0266493  49.0358553  58.5544913  55.6006493
  48.8188553  59.1274913  54.3746493  48.5568553  58.7594913  55.0156493
  44.2818553  62.5714913  40.6156493  44.0308553  62.4434913  41.4416493
  43.9648553  61.8764913  40.1946493  44.1978553  62.4504913  40.6756493
  49.0268553  53.2884913  55.7646493  48.8308553  53.9324913  56.3196493
  48.3048553  52.7984913  55.7566493  48.8918553  53.3114913  55.8456493
  48.9258553  54.2294913  48.7356493  48.0928553  54.4794913  48.6636493
  48.8698553  53.3894913  48.9646493  48.7948553  54.1424913  48.7586493
  38.1858553  51.2174913  53.9296493  38.4198553  50.6414913  53.3166493
  37.3438553  51.0364913  54.0706493  38.0958553  51.1054913  53.8596493
  45.8128553  58.8354913  56.3816493  46.6838553  58.7994913  56.3456493
  45.5938553  59.2554913  55.6496493  45.9098553  58.8914913  56.2686493
  35.5668553  64.6604913  47.5626493  35.4878553  63.8504913  47.2466493
  35.1228553  65.1474913  46.9906493  35.4898553  64.6124913  47.4316493
  41.1678553  60.7794913  40.0456493  41.8848553  60.4324913  39.6896493
  41.1338553  61.5794913  39.6976493  41.2688553  60.8464913  39.9416493
  33.1388553  66.9044913  51.1436493  33.6318553  66.8484913  51.8616493
  33.3268553  66.1714913  50.7086493  33.2398553  66.7874913  51.1856493
  42.5768553  49.4204913  24.2844083  42.3318553  49.9084913  23.6044083
  43.4398553  49.3474913  24.1844083  42.6678553  49.4814913  24.1694083
  42.3858553  56.3364913  28.9554083  41.8618553  56.9324913  29.3184083
  42.7828553  55.9684913  29.6394083  42.3668553  56.3704913  29.1104083
  32.2548553  60.4764913  24.4114083  31.8138553  60.5944913  25.1544083
  31.9718553  59.7014913  24.1264083  32.1478553  60.3794913  24.4794083
  48.5298553  63.7774913  21.9264083  49.2308553  63.2584913  21.9224083
  47.9428553  63.3324913  21.4574083  48.5468553  63.6344913  21.8564083
  31.9978553  54.2684913  20.9184083  31.2198553  54.4304913  20.5584083
  32.0368553  53.3974913  20.9404083  31.8888553  54.1634913  20.8684083
  35.1368553  59.5314913  19.5904083  34.7448553  59.1604913  18.9044083
  35.0568553  58.9334913  20.2194083  35.0668553  59.3884913  19.5814083
  45.0568553  57.4034913  25.6314083  45.1368553  57.4074913  24.7624083
  44.4728553  56.7714913  25.7804083  44.9818553  57.3104913  25.5254083
  34.7638553  61.1724913  23.4904083  35.3718553  61.0024913  24.0934083
  34.0128553  61.0324913  23.9114083  34.7428553  61.1264913  23.6414083
  39.0458553  50.5074913  23.4394083  38.9758553  51.1844913  22.8934083
  39.7868553  50.1194913  23.1904083  39.1448553  50.5504913  23.3214083
  33.6548553  64.2634913  19.5674083  34.1218553  64.3474913  18.8354083
  34.1098553  63.6854913  20.0364083  33.7908553  64.1904913  19.5284083
  32.1948553  63.2114913  30.6664083  32.3238553  62.9314913  31.4824083
  31.5848553  62.6704913  30.3574083  32.1238553  63.0904913  30.7414083
  38.7688553  60.7364913  35.7334083  38.5328553  60.7334913  36.5734083
  38.0208553  60.5884913  35.3094083  38.6228553  60.7134913  35.7944083
  33.6408553  57.7324913  24.8684083  33.1788553  57.3404913  24.2414083
  34.3408553  57.2194913  24.9604083  33.6758553  57.5994913  24.7894083
  38.1488553  53.3424913  30.2154083  38.8268553  53.3604913  29.6664083
  38.1038553  52.5064913  30.4604083  38.2418553  53.2214913  30.1704083
  38.7508553  63.9284913  32.9964083  38.8888553  64.6884913  32.5894083
  39.5418553  63.5634913  33.0234083  38.8878553  63.9874913  32.9404083
  35.6418553  55.8324913  24.8914083  36.4588553  55.6454913  25.1344083
  35.1648553  55.2184913  25.2874083  35.6918553  55.7144913  24.9864083
  39.8458553  61.8134913  27.5014083  40.1938553  61.0144913  27.5314083
  40.5108553  62.3174913  27.2464083  39.9958553  61.7694913  27.4684083
  39.9028553  61.2624913  23.7124083  40.2338553  60.6184913  24.1984083
  40.1428553  61.0514913  22.9014083  39.9868553  61.1364913  23.6644083
  41.8708553  55.3934913  35.0514083  41.0228553  55.2944913  34.8734083
  41.8998553  56.1384913  35.5054083  41.7498553  55.4894913  35.0924083
  36.2388553  50.9264913  24.1574083  35.9428553  51.4274913  23.5074083
  37.1058553  51.0044913  24.1004083  36.3228553  51.0124913  24.0534083
  46.4288553  48.3534913  34.1654083  46.2708553  49.1224913  33.7834083
  45.6568553  48.1334913  34.5094083  46.2908553  48.4344913  34.1604083
  39.2178553  50.0684913  26.3804083  39.2908553  50.9284913  26.5094083
  39.1798553  49.9934913  25.5124083  39.2228553  50.1844913  26.2714083
  43.8908553  52.9944913  18.6794083  43.4408553  53.6754913  18.9864083
  44.0048553  52.4904913  19.3824083  43.8418553  53.0204913  18.8284083
  32.0968553  55.4934913  27.8814083  31.8408553  56.3244913  27.8064083
  31.4328553  55.1104913  28.2984083  31.9608553  55.5594913  27.9324083
  32.0068553  65.2034913  25.7814083  31.4148553  65.7614913  25.4684083
  32.4328553  64.9344913  25.0694083  31.9828553  65.2454913  25.6304083
  37.8468553  63.0474913  23.2614083  37.2678553  62.7724913  23.8534083
  38.4708553  62.4384913  23.2864083  37.8538553  62.9174913  23.3524083
  43.9898553  65.3354913  20.7834083  44.7168553  65.8074913  20.8854083
  44.2188553  64.5414913  21.0634083  44.1318553  65.2884913  20.8404083
  42.1578553  65.7274913  22.7734083  42.3718553  66.2544913  23.4354083
  42.9248553  65.5534913  22.3944083  42.3028553  65.7794913  22.8154083
  38.4318553  52.4434913  37.6704083  38.5488553  51.9894913  36.9344083
  38.7198553  53.2414913  37.4674083  38.4918553  52.4944913  37.5314083
  33.5518553  63.8734913  23.7124083  34.2078553  63.2984913  23.7274083
  33.9408553  64.6224913  23.4914083  33.7068553  63.8984913  23.6824083
  49.2848553  52.9674913  24.9744083  48.9388553  53.6454913  25.4004083
  48.6488553  52.3694913  24.9904083  49.1398553  52.9794913  25.0394083
  44.5968553  65.7374913  31.0784083  45.3408553  66.1934913  31.0684083
  44.4758553  65.5234913  30.2414083  44.6888553  65.7734913  30.9534083
  34.1648553  52.0404913  36.6544083  33.3868553  51.6504913  36.5824083
  34.6558553  51.6284913  36.0634083  34.1218553  51.9214913  36.5564083
  34.3698553  62.3604913  27.2124083  34.7928553  62.0044913  26.5384083
  34.6938553  61.9384913  27.9044083  34.4798553  62.2454913  27.2154083
  37.6008553  65.2124913  26.5084083  38.4448553  65.3164913  26.3134083
  37.3038553  66.0304913  26.5764083  37.6818553  65.3484913  26.4894083
  40.8138553  49.6834913  35.8224083  40.9918553  48.8744913  35.5474083
  40.6708553  50.1244913  35.0834083  40.8188553  49.6294913  35.6724083
  41.4078553  54.6094913  24.5954083  41.6948553  54.3774913  23.8054083
  42.1398553  54.6884913  25.0644083  41.5578553  54.5864913  24.5484083
  42.1298553  54.9484913  19.7164083  42.4108553  55.7364913  19.9654083
  41.3538553  55.1134913  19.3534083  42.0568553  55.0894913  19.6994083
  46.1708553  66.9224913  21.1834083  46.8358553  66.7744913  20.6384083
  46.5308553  66.8394913  21.9734083  46.3228553  66.8884913  21.2194083
  36.5988553  66.4314913  32.2484083  36.8908553  66.3644913  33.0684083
  35.9728553  65.8264913  32.2034083  36.5498553  66.3324913  32.3634083
  48.9598553  51.2904913  30.3434083  49.7168553  51.3624913  29.9154083
  49.0228553  50.5174913  30.7424083  49.0808553  51.1874913  30.3384083
  31.5128553  52.5884913  34.2404083  31.5088553  53.1754913  34.8864083
  32.1068553  52.9004913  33.6834083  31.5998553  52.7214913  34.2534083
  43.8508553  62.9224913  34.7824083  43.8168553  63.3044913  35.5664083
  44.7048553  62.8804913  34.6114083  43.9718553  62.9724913  34.8734083
  40.9888553  63.1194913  19.5324083  40.8078553  63.6644913  20.1894083
  41.7548553  63.4094913  19.2314083  41.0748553  63.2434913  19.5854083
  32.4498553  52.1834913  23.1554083  32.3358553  51.3194913  23.1864083
  31.9748553  52.4774913  23.8254083  32.3628553  52.0994913  23.2584083
  34.5918553  64.5934913  31.3704083  33.8938553  64.0854913  31.4964083
  34.8518553  64.3884913  30.5624083  34.5268553  64.4884913  31.2694083
  41.7538553  53.3914913  21.9004083  41.2458553  52.7294913  21.6464083
  41.8058553  53.8954913  21.1904083  41.6868553  53.3684913  21.7584083
  42.3028553  66.0864913  32.2804083  43.0708553  66.0064913  31.8744083
  41.7198553  65.9654913  31.6424083  42.3298553  66.0564913  32.1264083
  41.7538553  50.3324913  21.7914083  41.2988553  49.9304913  21.1654083
  42.5268553  50.4874913  21.4164083  41.8008553  50.2964913  21.6434083
  48.5798553  66.6894913  25.1814083  48.1248553  67.4064913  25.3824083
  47.9658553  66.1184913  24.9394083  48.4218553  66.7114913  25.1754083
  40.3518553  52.6994913  26.3134083  40.4258553  53.2674913  25.6554083
  40.4728553  53.1914913  27.0234083  40.3798553  52.8564913  26.3214083
  45.5768553  62.5344913  24.7254083  46.2778553  62.0524913  24.9144083
  44.9168553  61.9654913  24.7704083  45.5828553  62.3794913  24.7594083
  35.9528553  63.4444913  33.9374083  36.7938553  63.5074913  33.7154083
  35.9158553  63.8414913  34.7134083  36.0718553  63.5124913  34.0194083
  37.9158553  58.9554913  28.6864083  38.0878553  58.7454913  29.5154083
  37.2608553  58.4214913  28.4704083  37.8448553  58.8454913  28.7774083
  44.1438553  52.8694913  32.2014083  44.0488553  53.1884913  33.0074083
  43.5508553  52.2304913  32.1634083  44.0418553  52.8214913  32.3154083
  38.6658553  58.8934913  31.2764083  38.7188553  59.7404913  31.4784083
  38.3808553  58.5234913  32.0134083  38.6318553  58.9634913  31.4144083
  44.8428553  59.5884913  30.4064083  44.3288553  59.1764913  30.9774083
  44.7168553  60.4324913  30.5874083  44.7488553  59.6524913  30.5174083
  45.3998553  48.8134913  25.0374083  45.4488553  48.4954913  25.8484083
  45.7228553  48.1694913  24.5444083  45.4548553  48.6714913  25.0844083
  31.4868553  63.2644913  37.4874083  32.2428553  63.6134913  37.7454083
  31.6638553  62.4114913  37.4304083  31.6248553  63.1894913  37.5174083
  47.8638553  53.0494913  33.3454083  48.6358553  52.8244913  33.6824083
  47.3888553  53.2664913  34.0454083  47.9078553  53.0484913  33.4984083
  35.4078553  52.3324913  26.3154083  35.6798553  51.9024913  25.6074083
  35.2318553  51.6964913  26.8864083  35.4218553  52.1754913  26.2954083
  48.0958553  60.0274913  20.5334083  48.2148553  59.7404913  21.3484083
  48.9028553  60.0484913  20.2034083  48.2318553  59.9884913  20.6054083
  35.2318553  59.7594913  25.8644083  36.0828553  59.6794913  25.6914083
  34.8748553  59.0774913  25.4524083  35.3048553  59.6464913  25.7774083
  33.9988553  66.4844913  27.1014083  33.3258553  65.9864913  26.8564083
  34.4018553  66.6694913  26.3504083  33.9588553  66.4384913  26.9544083
  33.5488553  53.4344913  29.3974083  34.3918553  53.6544913  29.3544083
  33.1598553  54.0074913  28.8664083  33.6158553  53.5514913  29.3124083
  50.3298553  64.5364913  34.7874083  49.6478553  64.8464913  34.3404083
  49.9608553  64.0784913  35.4324083  50.1738553  64.5144913  34.8164083
  45.9908553  56.5644913  20.1184083  45.7708553  57.2954913  19.6964083
  45.5428553  56.6154913  20.8654083  45.8918553  56.6794913  20.1664083
  37.5998553  59.7664913  24.0994083  38.3128553  60.2614913  24.1894083
  37.8218553  59.1994913  23.4734083  37.7378553  59.7554913  24.0204083
  50.1778553  51.4254913  19.5714083  49.5158553  50.8574913  19.5944083
  49.9848553  51.9374913  18.8914083  50.0518553  51.4174913  19.4744083
  31.7558553  61.4094913  27.4194083  31.0888553  61.8974913  27.6954083
  32.4358553  61.9544913  27.4484083  31.7578553  61.5614913  27.4644083
  39.4028553  55.1194913  37.5154083  38.9188553  55.6964913  37.9574083
  39.3748553  55.4144913  36.6944083  39.3268553  55.2484913  37.4594083
  50.5008553  55.8034913  32.1274083  50.7158553  55.0034913  31.8514083
  49.6508553  55.8634913  31.9384083  50.4068553  55.6944913  32.0584083
  31.8218553  58.0934913  22.5224083  31.6368553  57.2544913  22.6744083
  32.4808553  58.0574913  21.9524083  31.8918553  57.9644913  22.4604083
  48.1798553  50.9834913  21.8504083  48.9258553  50.5764913  22.0494083
  48.4428553  51.6984913  21.4254083  48.3288553  51.0294913  21.8174083
  42.1228553  63.4694913  26.4264083  41.5998553  64.1034913  26.1334083
  42.4328553  63.1054913  25.6974083  42.0908553  63.5094913  26.2754083
  31.9938553  62.2574913  22.0974083  32.5458553  62.8264913  22.4614083
  31.7618553  61.7424913  22.7624083  32.0408553  62.2654913  22.2494083
  36.1978553  61.2574913  29.1864083  36.6648553  61.5464913  29.8644083
  36.7698553  60.7794913  28.7324083  36.3518553  61.2294913  29.2194083
  44.6338553  53.2714913  26.9234083  44.9778553  53.4234913  27.7104083
  44.1808553  52.5334913  27.0364083  44.6178553  53.1844913  27.0564083
  31.8238553  60.7064913  19.7254083  32.5798553  60.2744913  19.7834083
  31.8388553  61.2384913  20.4164083  31.9378553  60.7214913  19.8364083
  32.7638553  58.9274913  27.7304083  33.1948553  58.7984913  26.9834083
  32.5588553  59.7754913  27.7044083  32.7968553  59.0334913  27.6164083
  39.1098553  52.4914913  21.3804083  39.1078553  52.3744913  20.5154083
  38.9288553  53.3394913  21.4724083  39.0828553  52.5994913  21.2664083
  48.1638553  64.9184913  32.8774083  47.4928553  65.4324913  33.0954083
  48.2268553  65.0184913  32.0134083  48.0738553  65.0094913  32.7824083
  36.8478553  62.4434913  26.0124083  36.9738553  63.2864913  26.1994083
  37.5158553  62.0444913  26.4084083  36.9658553  62.5094913  26.0984083
  34.9778553  55.9264913  35.8744083  34.4418553  55.4204913  36.3424083
  34.9978553  55.5364913  35.0944083  34.9008553  55.7934913  35.8284083
  35.4628553  55.3234913  21.0144083  35.3348553  54.8754913  21.7524083
  34.8808553  54.9814913  20.4624083  35.3578553  55.2064913  21.0424083
  35.6298553  57.1534913  27.6134083  34.8488553  57.0944913  27.2304083
  35.7018553  56.4014913  28.0504083  35.5248553  57.0344913  27.6214083
  36.0598553  56.8904913  31.0814083  36.0848553  56.2154913  30.5304083
  35.4138553  57.3864913  30.7694083  35.9688553  56.8634913  30.9544083
  45.9548553  54.6034913  29.4774083  45.2928553  54.9314913  29.9404083
  46.1418553  55.2374913  28.9084083  45.8848553  54.7454913  29.4614083
  40.1598553  65.6674913  30.4734083  39.8828553  65.0264913  29.9504083
  39.9518553  66.3934913  30.0354083  40.0888553  65.6804913  30.3314083
  42.5998553  50.5094913  32.9064083  42.7488553  49.6844913  32.6634083
  42.9788553  50.5644913  33.6904083  42.6778553  50.3954913  32.9864083
  44.1478553  52.5724913  22.9884083  44.6378553  53.2894913  22.9114083
  43.3578553  52.8334913  22.7254083  44.1038553  52.7164913  22.9384083
  33.8588553  58.2454913  36.6404083  33.8218553  58.7464913  35.9264083
  34.1898553  57.4934913  36.3454083  33.9018553  58.2074913  36.4914083
  45.4618553  60.4504913  34.8984083  45.9458553  61.1684913  34.9964083
  45.8558553  60.0234913  34.2474083  45.5918553  60.4934913  34.8164083
  39.7578553  63.2954913  36.0754083  40.1118553  63.1174913  36.8524083
  39.3218553  62.5664913  35.8764083  39.7458553  63.1614913  36.1614083
  40.7298553  54.0424913  28.7134083  41.2098553  54.7414913  28.9214083
  41.1028553  53.3954913  29.1644083  40.8558553  54.0504913  28.8104083
  42.9188553  57.2114913  20.9874083  42.9108553  57.9334913  20.4974083
  42.2798553  57.3464913  21.5644083  42.8238553  57.3384913  21.0004083
  47.8908553  61.0814913  24.9684083  48.2468553  60.7314913  25.6834083
  47.8828553  60.4204913  24.3984083  47.9428553  60.9314913  24.9894083
  43.9358553  64.1474913  28.8124083  43.3328553  63.8514913  28.2554083
  44.4808553  64.5994913  28.3034083  43.9268553  64.1704913  28.6544083
  43.9488553  60.9984913  28.2124083  43.1518553  61.2224913  28.4864083
  44.2068553  60.4044913  28.7974083  43.8688553  60.9434913  28.3394083
  37.8408553  65.8104913  22.6604083  37.6938553  65.0344913  23.0314083
  38.5298553  65.6634913  22.1454083  37.9208553  65.6734913  22.6394083
  37.5118553  49.5534913  20.6484083  37.6088553  49.4464913  21.5094083
  36.8038553  50.0594913  20.5834083  37.4218553  49.6124913  20.7664083
  40.1328553  65.3264913  21.0624083  40.7548553  65.4894913  21.6524083
  40.1688553  66.0174913  20.5304083  40.2298553  65.4524913  21.0714083
  47.2088553  58.9964913  33.0584083  47.2638553  59.1214913  32.1964083
  47.9618553  59.3164913  33.3604083  47.3278553  59.0614913  32.9754083
  43.3998553  64.3454913  37.3354083  43.5638553  64.6284913  38.1444083
  43.6628553  65.0064913  36.8304083  43.4628553  64.4854913  37.3804083
  48.2408553  49.2944913  36.0454083  47.6038553  48.8944913  35.6034083
  48.2668553  48.8634913  36.8034083  48.1508553  49.1724913  36.0914083
  34.6338553  57.8604913  21.8914083  34.9578553  57.0814913  21.6694083
  35.2798553  58.2284913  22.3464083  34.7768553  57.7994913  21.9254083
  42.9398553  58.8024913  32.6584083  42.7848553  59.4124913  33.2624083
  43.4738553  58.2444913  33.0644083  42.9958553  58.8104913  32.8074083
  31.6308553  49.5214913  22.8594083  31.7598553  48.8134913  22.3674083
  31.2638553  49.2034913  23.5844083  31.5958553  49.3694913  22.8944083
  41.3238553  57.2024913  23.3164083  41.3828553  57.8524913  23.8954083
  41.1348553  56.5064913  23.8074083  41.3048553  57.1954913  23.4744083
  46.5498553  61.5314913  29.1854083  46.0708553  61.8294913  28.5194083
  46.1938553  60.7554913  29.3634083  46.4268553  61.4604913  29.1134083
  40.5468553  59.2494913  27.7474083  39.6998553  59.0554913  27.8284083
  40.8708553  59.0844913  28.5404083  40.4688553  59.1964913  27.8764083
  37.2988553  65.9794913  18.6334083  37.7378553  65.2824913  18.9214083
  37.5058553  66.6034913  19.2064083  37.3948553  65.9684913  18.7604083
  34.3948553  58.9424913  30.0634083  35.1168553  59.4304913  30.0264083
  34.1248553  58.9124913  29.2344083  34.4618553  59.0104913  29.9354083
  37.6248553  54.1134913  26.7984083  38.4708553  53.9234913  26.8964083
  37.2548553  53.3364913  26.6604083  37.6948553  53.9704913  26.7924083
  50.2418553  65.6974913  21.1254083  50.9358553  65.2304913  20.8774083
  49.7028553  65.0994913  21.4624083  50.2648553  65.5394913  21.1384083
  32.4458553  55.4514913  23.4534083  32.9348553  55.1594913  24.1144083
  32.5748553  54.8584913  22.8264083  32.5368553  55.3204913  23.4584083
  47.4808553  58.4734913  30.3044083  47.4738553  57.6974913  30.7024083
  46.6398553  58.7074913  30.2974083  47.3558553  58.3934913  30.3624083
  36.9708553  56.8854913  18.9394083  36.3608553  56.4804913  19.4134083
  36.5848553  57.0034913  18.1664083  36.8238553  56.8424913  18.8954083
  33.7898553  59.9944913  34.3414083  33.3688553  59.4764913  33.7804083
  33.4378553  60.7804913  34.1984083  33.6758553  60.0344913  34.2374083
  48.7368553  58.5444913  27.7414083  48.4508553  58.9454913  28.4614083
  49.5968553  58.4824913  27.8684083  48.8218553  58.5944913  27.8664083
  38.4258553  55.3464913  21.6494083  38.6978553  56.1724913  21.7164083
  37.5628553  55.4214913  21.5534083  38.3388553  55.4794913  21.6444083
  46.3988553  52.4684913  36.2814083  45.8738553  52.9274913  36.8054083
  46.0378553  51.6734913  36.2754083  46.2678553  52.4184913  36.3574083
  31.9058553  51.3164913  28.1854083  31.9498553  51.6604913  27.3844083
  32.6608553  51.5534913  28.5524083  32.0238553  51.4024913  28.1214083
  49.8678553  64.1774913  28.2704083  50.1578553  64.4344913  27.4894083
  50.5628553  64.2734913  28.7894083  50.0138553  64.2294913  28.2314083
  44.8908553  56.0374913  36.3574083  44.9638553  56.1414913  37.2204083
  44.2568553  56.5954913  36.1364083  44.8078553  56.1354913  36.4524083
  47.1588553  56.3564913  34.7224083  47.4778553  57.1424913  34.9254083
  46.7888553  56.0864913  35.4654083  47.1518553  56.4324913  34.8624083
  46.4728553  62.7804913  20.2524083  46.8068553  61.9744913  20.2874083
  45.7178553  62.7084913  20.6824083  46.4108553  62.6504913  20.3214083
  46.9548553  54.6144913  25.9114083  46.2098553  54.2914913  26.2294083
  46.9568553  55.4404913  26.1914083  46.8448553  54.6884913  25.9994083
  49.8568553  56.8984913  37.4574083  49.8048553  56.5574913  36.6564083
  50.5938553  57.3654913  37.4354083  49.9578553  56.9174913  37.3354083
  49.3948553  60.5744913  33.6634083  50.0228553  60.0254913  33.4074083
  49.3338553  61.1394913  33.0014083  49.4788553  60.5774913  33.5274083
  43.8468553  60.6554913  19.6554083  44.5308553  60.1414913  19.4864083
  43.4298553  60.7014913  18.8904083  43.8858553  60.5864913  19.5174083
  38.5288553  61.8054913  30.9594083  38.2308553  62.3974913  31.5264083
  38.5838553  62.2474913  30.2104083  38.4928553  61.9584913  30.9324083
  36.5078553  60.7554913  34.3574083  35.7018553  60.4654913  34.5244083
  36.4188553  61.6234913  34.3634083  36.3758553  60.8404913  34.3824083
  45.8668553  50.9444913  33.3724083  46.6108553  51.3964913  33.3094083
  45.3008553  51.4144913  32.9034083  45.8938553  51.0814913  33.2944083
  41.0448553  58.2284913  30.4504083  41.5208553  58.6024913  31.0784083
  40.2218553  58.3624913  30.7094083  40.9938553  58.3034913  30.5814083
  37.7548553  53.8314913  33.1914083  37.9158553  53.0874913  33.6184083
  37.7098553  53.5824913  32.3564083  37.7718553  53.6844913  33.1314083
  40.3088553  65.6214913  25.6784083  40.8548553  66.3004913  25.7324083
  39.9588553  65.7034913  24.8834083  40.3378553  65.7344913  25.5684083
  47.1518553  48.9244913  31.0424083  46.8718553  49.7494913  30.9984083
  47.8678553  48.9774913  31.5384083  47.2168553  49.0544913  31.1094083
  39.5068553  49.6394913  33.0714083  40.2118553  49.9594913  32.6694083
  39.7478553  48.8324913  33.2984083  39.6458553  49.5674913  33.0454083
  38.4918553  63.8494913  29.0674083  37.8678553  64.4314913  28.8854083
  38.7398553  63.5634913  28.2814083  38.4358553  63.8934913  28.9244083
  42.8008553  60.4834913  36.0564083  43.5578553  60.7694913  35.7304083
  42.2538553  60.5354913  35.3784083  42.8318553  60.5334913  35.9074083
  46.7098553  63.0334913  34.5604083  47.0558553  63.3034913  35.3144083
  47.0038553  63.6154913  33.9804083  46.8048553  63.1594913  34.5864083
  48.5728553  55.1794913  19.8994083  48.9508553  55.8564913  19.4994083
  47.7308553  55.4034913  19.9304083  48.5038553  55.3124913  19.8444083
  40.0858553  58.6254913  18.9824083  39.2808553  58.4484913  18.6974083
  40.0528553  59.4764913  19.1744083  39.9618553  58.7244913  18.9694083
  36.0158553  54.6924913  29.1324083  36.4558553  54.5894913  28.3864083
  36.5608553  54.3794913  29.7374083  36.1608553  54.6314913  29.1114083
  44.0318553  53.7944913  34.7244083  43.3838553  54.2644913  35.0724083
  44.5968553  53.7054913  35.3834083  44.0198553  53.8504913  34.8734083
  43.7198553  55.3314913  31.0224083  44.0218553  55.7514913  31.7254083
  43.7558553  54.4914913  31.2544083  43.7698553  55.2694913  31.1604083
  41.1448553  65.4984913  34.9474083  41.6228553  64.8984913  34.5314083
  40.7938553  65.0554913  35.6124083  41.1638553  65.3444913  34.9844083
  46.2678553  54.7784913  23.2744083  46.4748553  54.5774913  24.0984083
  47.0238553  55.0464913  22.9324083  46.4098553  54.7884913  23.3454083
  39.5628553  49.6774913  29.1794083  38.7368553  49.5284913  29.4164083
  39.5228553  49.7124913  28.3084083  39.4348553  49.6604913  29.0854083
  47.2898553  50.8614913  24.7484083  46.5758553  50.3904913  24.9194083
  47.1278553  51.2024913  23.9624083  47.1608553  50.8424913  24.6574083
  47.7328553  58.8054913  23.1284083  48.2088553  58.0764913  23.0804083
  46.9118553  58.5194913  23.0524083  47.6818553  58.6554913  23.1094083
  41.2038553  60.7174913  33.9674083  40.4088553  60.6534913  34.3184083
  41.2748553  61.5644913  33.7724083  41.0968553  60.8324913  33.9904083
  32.1278553  50.0754913  35.2144083  31.9878553  50.8704913  34.8834083
  31.3418553  49.8324913  35.5034083  31.9908553  50.1574913  35.2084083
  37.0338553  66.9244913  29.2844083  37.0448553  66.9834913  30.1544083
  36.6088553  66.1774913  29.1344083  36.9728553  66.8224913  29.3904083
  35.1918553  52.8194913  22.4394083  35.3178553  52.4904913  21.6414083
  34.3798553  52.5704913  22.6384083  35.0908553  52.7344913  22.3514083
  43.9488553  59.9724913  25.4834083  44.0248553  60.3134913  26.2824083
  44.1178553  59.1254913  25.6044083  43.9848553  59.8974913  25.6194083
  41.4708553  59.2464913  25.0484083  41.1728553  58.9314913  25.8054083
  42.1658553  59.7194913  25.2834083  41.5298553  59.2694913  25.1954083
  41.6928553  63.3644913  33.0754083  42.3798553  63.2504913  33.6004083
  41.8268553  64.1554913  32.7314083  41.8138553  63.4644913  33.1024083
  49.8688553  55.9734913  34.8864083  49.0138553  55.8514913  35.0124083
  50.0218553  55.5784913  34.1234083  49.7648553  55.8964913  34.7924083
  44.3818553  56.6384913  33.4624083  44.1268553  55.9194913  33.8844083
  45.2028553  56.7544913  33.7324083  44.4658553  56.5494913  33.5644083
  33.7978553  66.4224913  34.7264083  33.1438553  65.8534913  34.8244083
  33.4228553  67.1954913  34.8774083  33.6458553  66.4524913  34.7634083
  42.3158553  57.8284913  36.6494083  42.6388553  58.5144913  36.2174083
  41.6118553  58.1514913  37.0514083  42.2588553  57.9774913  36.6444083
  45.3998553  66.2024913  27.5784083  44.9488553  66.8454913  27.9574083
  46.1078553  66.1234913  28.0834083  45.4378553  66.2854913  27.7094083
  42.1008553  61.2924913  30.5084083  41.4068553  61.6944913  30.8514083
  42.7778553  61.7254913  30.8474083  42.0978553  61.4154913  30.6094083
  47.4778553  63.8854913  37.0884083  48.2538553  63.4954913  37.1714083
  47.0088553  63.5494913  37.7434083  47.5228553  63.7784913  37.1974083
  35.1688553  54.8304913  32.8554083  35.5438553  55.4494913  32.3684083
  35.8428553  54.3564913  33.1404083  35.3238553  54.8524913  32.8254083
  32.9438553  53.2784913  32.1304083  33.0208553  53.1094913  31.2774083
  33.6898553  53.6844913  32.3274083  33.0648553  53.3134913  32.0334083
  48.5028553  55.9184913  22.5704083  48.6058553  55.8604913  21.7064083
  49.2438553  55.5864913  22.8884083  48.6278553  55.8614913  22.4894083
  35.4978553  50.6884913  34.5414083  35.4168553  49.8444913  34.7474083
  35.1838553  50.7324913  33.7284083  35.4398553  50.5704913  34.4514083
  42.4228553  62.8834913  23.6774083  42.2178553  63.7164913  23.5184083
  41.6478553  62.5014913  23.7994083  42.2778553  62.9504913  23.6724083
  47.6048553  56.0644913  31.9264083  47.6028553  55.2014913  32.0504083
  47.6718553  56.3884913  32.7334083  47.6148553  55.9844913  32.0634083
  32.3408553  58.5044913  32.3544083  32.6608553  58.7234913  31.5734083
  32.2408553  57.6394913  32.2994083  32.3728553  58.4094913  32.2314083
  33.7968553  54.4404913  18.9724083  33.1248553  54.4544913  19.5284083
  33.8918553  53.5924913  18.7884083  33.7118553  54.3174913  19.0274083
  43.4838553  50.8644913  35.7084083  43.5758553  51.5764913  36.2024083
  42.8468553  50.4194913  36.1054083  43.4028553  50.9034913  35.8404083
  42.4778553  51.0544913  26.5624083  41.7778553  51.5724913  26.5064083
  42.5158553  50.6744913  25.7784083  42.3798553  51.0754913  26.4384083
  37.7848553  63.1454913  20.0864083  38.2258553  63.2254913  20.8344083
  36.9798553  62.9294913  20.3444083  37.7308553  63.1254913  20.2354083
  37.1038553  57.7964913  33.7394083  36.7078553  58.5704913  33.8144083
  36.6978553  57.4234913  33.0634083  36.9858553  57.8554913  33.6504083
  46.3798553  56.8504913  27.8534083  47.0458553  57.3914913  28.0134083
  46.0348553  57.1614913  27.1144083  46.4268553  56.9764913  27.7684083
  46.6928553  64.9164913  23.6604083  46.5188553  64.2624913  24.2104083
  47.4058553  64.6454913  23.2374083  46.7728553  64.7794913  23.6794083
  35.1138553  62.2154913  20.6874083  34.8698553  61.9084913  21.4674083
  35.0808553  61.5124913  20.1714083  35.0728553  62.0664913  20.7264083
  37.9328553  60.4604913  19.4304083  37.1148553  60.1924913  19.5704083
  37.9048553  61.3124913  19.6154083  37.8078553  60.5474913  19.4784083
  37.5328553  50.7734913  31.1894083  36.6688553  50.8574913  31.2694083
  37.7528553  50.2594913  31.8584083  37.4378553  50.7104913  31.3004083
  49.5508553  49.4084913  32.5184083  49.4988553  49.3644913  33.3884083
  50.2378553  48.9054913  32.3284083  49.6448553  49.3284913  32.6184083
  41.6358553  51.5214913  29.5634083  40.8988553  51.0674913  29.6764083
  42.2068553  51.1194913  30.0864083  41.6108553  51.3944913  29.6574083
  44.3678553  62.3694913  31.3514083  44.5738553  62.6704913  32.1434083
  44.3068553  63.0914913  30.8664083  44.3888553  62.5204913  31.3964083
  43.9018553  66.5834913  35.5974083  43.1488553  66.5654913  35.1564083
  44.0698553  67.4354913  35.6814083  43.8158553  66.7064913  35.5444083
  39.1388553  55.8504913  34.7674083  38.8168553  55.2744913  34.1974083
  38.7798553  56.6054913  34.5214083  39.0388553  55.8764913  34.6474083
  39.9348553  49.1024913  19.3944083  40.0128553  49.3494913  18.5614083
  39.1918553  49.4794913  19.6524083  39.8368553  49.1944913  19.3094083
  49.1798553  61.0084913  30.8094083  49.1478553  60.1464913  30.6744083
  48.4868553  61.3104913  30.3754083  49.0728553  60.9254913  30.7254083
  37.5738553  66.2064913  35.0154083  37.6148553  66.3324913  35.8784083
  38.2248553  65.6464913  34.8594083  37.6758553  66.1424913  35.1204083
  47.2848553  64.2684913  29.6064083  47.8118553  64.1854913  28.9154083
  46.8938553  63.4904913  29.6604083  47.3048553  64.1414913  29.5124083
  34.7528553  50.8564913  31.8374083  34.4098553  50.0894913  31.6034083
  34.0578553  51.3804913  31.9014083  34.5998553  50.8204913  31.8124083
  43.7988553  49.7124913  28.8144083  44.4688553  50.2564913  28.9414083
  43.2958553  50.1364913  28.2414083  43.8238553  49.8554913  28.7484083
  35.1668553  64.5894913  36.3754083  35.7618553  65.0204913  36.8474083
  34.8028553  65.2134913  35.8864083  35.2008553  64.7454913  36.3724083
  43.1578553  55.5204913  26.3074083  43.7088553  54.9134913  26.6074083
  42.7328553  55.7834913  27.0224083  43.1768553  55.4694913  26.4564083
  33.4058553  54.1704913  25.7934083  33.0378553  54.4724913  26.5244083
  33.9398553  53.5414913  26.0774083  33.4298553  54.1224913  25.9434083
  33.0938553  62.5784913  33.3044083  32.5198553  62.9944913  33.8134083
  33.8268553  63.0434913  33.3994083  33.1178553  62.7084913  33.3934083
  45.1278553  57.3514913  22.8694083  45.1958553  56.5014913  23.0504083
  44.3048553  57.4374913  22.5914083  45.0158553  57.2384913  22.8554083
  34.8798553  65.8454913  22.0794083  34.7348553  66.0014913  21.2334083
  35.7458553  65.9244913  22.1574083  34.9868553  65.8804913  21.9664083
  39.0468553  58.2424913  21.8074083  39.1468553  58.3814913  20.9524083
  39.8648553  58.1824913  22.1034083  39.1818553  58.2534913  21.7244083
  48.2068553  66.3064913  19.2874083  48.8438553  66.1724913  19.8684083
  47.8658553  65.5124913  19.1704083  48.2508553  66.1694913  19.3554083
  48.4018553  58.7244913  36.0204083  49.0358553  58.5544913  36.5944083
  48.8188553  59.1274913  35.3684083  48.5568553  58.7594913  36.0094083
  44.2818553  62.5714913  21.6094083  44.0308553  62.4434913  22.4354083
  43.9648553  61.8764913  21.1884083  44.1978553  62.4504913  21.6694083
  49.0268553  53.2884913  36.7584083  48.8308553  53.9324913  37.3134083
  48.3048553  52.7984913  36.7504083  48.8918553  53.3114913  36.8394083
  48.9258553  54.2294913  29.7294083  48.0928553  54.4794913  29.6574083
  48.8698553  53.3894913  29.9584083  48.7948553  54.1424913  29.7524083
  38.1858553  51.2174913  34.9234083  38.4198553  50.6414913  34.3104083
  37.3438553  51.0364913  35.0644083  38.0958553  51.1054913  34.8534083
  45.8128553  58.8354913  37.3754083  46.6838553  58.7994913  37.3394083
  45.5938553  59.2554913  36.6434083  45.9098553  58.8914913  37.2624083
  35.5668553  64.6604913  28.5564083  35.4878553  63.8504913  28.2404083
  35.1228553  65.1474913  27.9844083  35.4898553  64.6124913  28.4254083
  41.1678553  60.7794913  21.0394083  41.8848553  60.4324913  20.6834083
  41.1338553  61.5794913  20.6914083  41.2688553  60.8464913  20.9354083
  33.1388553  66.9044913  32.1374083  33.6318553  66.8484913  32.8554083
  33.3268553  66.1714913  31.7024083  33.2398553  66.7874913  32.1794083
  42.5768553  49.4204913   5.2781673  42.3318553  49.9084913   4.5981673
  43.4398553  49.3474913   5.1781673  42.6678553  49.4814913   5.1631673
  42.3858553  56.3364913   9.9491673  41.8618553  56.9324913  10.3121673
  42.7828553  55.9684913  10.6331673  42.3668553  56.3704913  10.1041673
  32.2548553  60.4764913   5.4051673  31.8138553  60.5944913   6.1481673
  31.9718553  59.7014913   5.1201673  32.1478553  60.3794913   5.4731673
  48.5298553  63.7774913   2.9201673  49.2308553  63.2584913   2.9161673
  47.9428553  63.3324913   2.4511673  48.5468553  63.6344913   2.8501673
  45.0568553  57.4034913   6.6251673  45.1368553  57.4074913   5.7561673
  44.4728553  56.7714913   6.7741673  44.9818553  57.3104913   6.5191673
  34.7638553  61.1724913   4.4841673  35.3718553  61.0024913   5.0871673
  34.0128553  61.0324913   4.9051673  34.7428553  61.1264913   4.6351673
  39.0458553  50.5074913   4.4331673  38.9758553  51.1844913   3.8871673
  39.7868553  50.1194913   4.1841673  39.1448553  50.5504913   4.3151673
  32.1948553  63.2114913  11.6601673  32.3238553  62.9314913  12.4761673
  31.5848553  62.6704913  11.3511673  32.1238553  63.0904913  11.7351673
  38.7688553  60.7364913  16.7271673  38.5328553  60.7334913  17.5671673
  38.0208553  60.5884913  16.3031673  38.6228553  60.7134913  16.7881673
  33.6408553  57.7324913   5.8621673  33.1788553  57.3404913   5.2351673
  34.3408553  57.2194913   5.9541673  33.6758553  57.5994913   5.7831673
  38.1488553  53.3424913  11.2091673  38.8268553  53.3604913  10.6601673
  38.1038553  52.5064913  11.4541673  38.2418553  53.2214913  11.1641673
  38.7508553  63.9284913  13.9901673  38.8888553  64.6884913  13.5831673
  39.5418553  63.5634913  14.0171673  38.8878553  63.9874913  13.9341673
  35.6418553  55.8324913   5.8851673  36.4588553  55.6454913   6.1281673
  35.1648553  55.2184913   6.2811673  35.6918553  55.7144913   5.9801673
  39.8458553  61.8134913   8.4951673  40.1938553  61.0144913   8.5251673
  40.5108553  62.3174913   8.2401673  39.9958553  61.7694913   8.4621673
  39.9028553  61.2624913   4.7061673  40.2338553  60.6184913   5.1921673
  40.1428553  61.0514913   3.8951673  39.9868553  61.1364913   4.6581673
  41.8708553  55.3934913  16.0451673  41.0228553  55.2944913  15.8671673
  41.8998553  56.1384913  16.4991673  41.7498553  55.4894913  16.0861673
  36.2388553  50.9264913   5.1511673  35.9428553  51.4274913   4.5011673
  37.1058553  51.0044913   5.0941673  36.3228553  51.0124913   5.0471673
  46.4288553  48.3534913  15.1591673  46.2708553  49.1224913  14.7771673
  45.6568553  48.1334913  15.5031673  46.2908553  48.4344913  15.1541673
  39.2178553  50.0684913   7.3741673  39.2908553  50.9284913   7.5031673
  39.1798553  49.9934913   6.5061673  39.2228553  50.1844913   7.2651673
  32.0968553  55.4934913   8.8751673  31.8408553  56.3244913   8.8001673
  31.4328553  55.1104913   9.2921673  31.9608553  55.5594913   8.9261673
  32.0068553  65.2034913   6.7751673  31.4148553  65.7614913   6.4621673
  32.4328553  64.9344913   6.0631673  31.9828553  65.2454913   6.6241673
  37.8468553  63.0474913   4.2551673  37.2678553  62.7724913   4.8471673
  38.4708553  62.4384913   4.2801673  37.8538553  62.9174913   4.3461673
  43.9898553  65.3354913   1.7771673  44.7168553  65.8074913   1.8791673
  44.2188553  64.5414913   2.0571673  44.1318553  65.2884913   1.8341673
  42.1578553  65.7274913   3.7671673  42.3718553  66.2544913   4.4291673
  42.9248553  65.5534913   3.3881673  42.3028553  65.7794913   3.8091673
  35.1258553  50.3104913   9.3661673  34.6048553  49.6824913   9.0581673
  35.7168553  49.8734913   9.8371673  35.1368553  50.1524913   9.3901673
  38.4318553  52.4434913  18.6641673  38.5488553  51.9894913  17.9281673
  38.7198553  53.2414913  18.4611673  38.4918553  52.4944913  18.5251673
  33.5518553  63.8734913   4.7061673  34.2078553  63.2984913   4.7211673
  33.9408553  64.6224913   4.4851673  33.7068553  63.8984913   4.6761673
  49.2848553  52.9674913   5.9681673  48.9388553  53.6454913   6.3941673
  48.6488553  52.3694913   5.9841673  49.1398553  52.9794913   6.0331673
  44.5968553  65.7374913  12.0721673  45.3408553  66.1934913  12.0621673
  44.4758553  65.5234913  11.2351673  44.6888553  65.7734913  11.9471673
  34.1648553  52.0404913  17.6481673  33.3868553  51.6504913  17.5761673
  34.6558553  51.6284913  17.0571673  34.1218553  51.9214913  17.5501673
  34.3698553  62.3604913   8.2061673  34.7928553  62.0044913   7.5321673
  34.6938553  61.9384913   8.8981673  34.4798553  62.2454913   8.2091673
  37.6008553  65.2124913   7.5021673  38.4448553  65.3164913   7.3071673
  37.3038553  66.0304913   7.5701673  37.6818553  65.3484913   7.4831673
  40.8138553  49.6834913  16.8161673  40.9918553  48.8744913  16.5411673
  40.6708553  50.1244913  16.0771673  40.8188553  49.6294913  16.6661673
  41.4078553  54.6094913   5.5891673  41.6948553  54.3774913   4.7991673
  42.1398553  54.6884913   6.0581673  41.5578553  54.5864913   5.5421673
  46.1708553  66.9224913   2.1771673  46.8358553  66.7744913   1.6321673
  46.5308553  66.8394913   2.9671673  46.3228553  66.8884913   2.2131673
  36.5988553  66.4314913  13.2421673  36.8908553  66.3644913  14.0621673
  35.9728553  65.8264913  13.1971673  36.5498553  66.3324913  13.3571673
  48.9598553  51.2904913  11.3371673  49.7168553  51.3624913  10.9091673
  49.0228553  50.5174913  11.7361673  49.0808553  51.1874913  11.3321673
  31.5128553  52.5884913  15.2341673  31.5088553  53.1754913  15.8801673
  32.1068553  52.9004913  14.6771673  31.5998553  52.7214913  15.2471673
  43.8508553  62.9224913  15.7761673  43.8168553  63.3044913  16.5601673
  44.7048553  62.8804913  15.6051673  43.9718553  62.9724913  15.8671673
  32.4498553  52.1834913   4.1491673  32.3358553  51.3194913   4.1801673
  31.9748553  52.4774913   4.8191673  32.3628553  52.0994913   4.2521673
  34.5918553  64.5934913  12.3641673  33.8938553  64.0854913  12.4901673
  34.8518553  64.3884913  11.5561673  34.5268553  64.4884913  12.2631673
  41.7538553  53.3914913   2.8941673  41.2458553  52.7294913   2.6401673
  41.8058553  53.8954913   2.1841673  41.6868553  53.3684913   2.7521673
  42.3028553  66.0864913  13.2741673  43.0708553  66.0064913  12.8681673
  41.7198553  65.9654913  12.6361673  42.3298553  66.0564913  13.1201673
  41.7538553  50.3324913   2.7851673  41.2988553  49.9304913   2.1591673
  42.5268553  50.4874913   2.4101673  41.8008553  50.2964913   2.6371673
  48.5798553  66.6894913   6.1751673  48.1248553  67.4064913   6.3761673
  47.9658553  66.1184913   5.9331673  48.4218553  66.7114913   6.1691673
  40.3518553  52.6994913   7.3071673  40.4258553  53.2674913   6.6491673
  40.4728553  53.1914913   8.0171673  40.3798553  52.8564913   7.3151673
  45.5768553  62.5344913   5.7191673  46.2778553  62.0524913   5.9081673
  44.9168553  61.9654913   5.7641673  45.5828553  62.3794913   5.7531673
  35.9528553  63.4444913  14.9311673  36.7938553  63.5074913  14.7091673
  35.9158553  63.8414913  15.7071673  36.0718553  63.5124913  15.0131673
  34.9598553  48.5224913   5.6551673  35.4958553  49.2104913   5.6451673
  34.9628553  48.2484913   4.8271673  35.0388553  48.5834913   5.5311673
  37.9158553  58.9554913   9.6801673  38.0878553  58.7454913  10.5091673
  37.2608553  58.4214913   9.4641673  37.8448553  58.8454913   9.7711673
  44.1438553  52.8694913  13.1951673  44.0488553  53.1884913  14.0011673
  43.5508553  52.2304913  13.1571673  44.0418553  52.8214913  13.3091673
  38.6658553  58.8934913  12.2701673  38.7188553  59.7404913  12.4721673
  38.3808553  58.5234913  13.0071673  38.6318553  58.9634913  12.4081673
  44.8428553  59.5884913  11.4001673  44.3288553  59.1764913  11.9711673
  44.7168553  60.4324913  11.5811673  44.7488553  59.6524913  11.5111673
  45.3998553  48.8134913   6.0311673  45.4488553  48.4954913   6.8421673
  45.7228553  48.1694913   5.5381673  45.4548553  48.6714913   6.0781673
  31.4868553  63.2644913  18.4811673  32.2428553  63.6134913  18.7391673
  31.6638553  62.4114913  18.4241673  31.6248553  63.1894913  18.5111673
  47.8638553  53.0494913  14.3391673  48.6358553  52.8244913  14.6761673
  47.3888553  53.2664913  15.0391673  47.9078553  53.0484913  14.4921673
  35.4078553  52.3324913   7.3091673  35.6798553  51.9024913   6.6011673
  35.2318553  51.6964913   7.8801673  35.4218553  52.1754913   7.2891673
  35.2318553  59.7594913   6.8581673  36.0828553  59.6794913   6.6851673
  34.8748553  59.0774913   6.4461673  35.3048553  59.6464913   6.7711673
  33.9988553  66.4844913   8.0951673  33.3258553  65.9864913   7.8501673
  34.4018553  66.6694913   7.3441673  33.9588553  66.4384913   7.9481673
  33.5488553  53.4344913  10.3911673  34.3918553  53.6544913  10.3481673
  33.1598553  54.0074913   9.8601673  33.6158553  53.5514913  10.3061673
  50.3298553  64.5364913  15.7811673  49.6478553  64.8464913  15.3341673
  49.9608553  64.0784913  16.4261673  50.1738553  64.5144913  15.8101673
  37.5998553  59.7664913   5.0931673  38.3128553  60.2614913   5.1831673
  37.8218553  59.1994913   4.4671673  37.7378553  59.7554913   5.0141673
  31.7558553  61.4094913   8.4131673  31.0888553  61.8974913   8.6891673
  32.4358553  61.9544913   8.4421673  31.7578553  61.5614913   8.4581673
  39.4028553  55.1194913  18.5091673  38.9188553  55.6964913  18.9511673
  39.3748553  55.4144913  17.6881673  39.3268553  55.2484913  18.4531673
  50.5008553  55.8034913  13.1211673  50.7158553  55.0034913  12.8451673
  49.6508553  55.8634913  12.9321673  50.4068553  55.6944913  13.0521673
  31.8218553  58.0934913   3.5161673  31.6368553  57.2544913   3.6681673
  32.4808553  58.0574913   2.9461673  31.8918553  57.9644913   3.4541673
  48.1798553  50.9834913   2.8441673  48.9258553  50.5764913   3.0431673
  48.4428553  51.6984913   2.4191673  48.3288553  51.0294913   2.8111673
  42.1228553  63.4694913   7.4201673  41.5998553  64.1034913   7.1271673
  42.4328553  63.1054913   6.6911673  42.0908553  63.5094913   7.2691673
  31.9938553  62.2574913   3.0911673  32.5458553  62.8264913   3.4551673
  31.7618553  61.7424913   3.7561673  32.0408553  62.2654913   3.2431673
  36.1978553  61.2574913  10.1801673  36.6648553  61.5464913  10.8581673
  36.7698553  60.7794913   9.7261673  36.3518553  61.2294913  10.2131673
  44.6338553  53.2714913   7.9171673  44.9778553  53.4234913   8.7041673
  44.1808553  52.5334913   8.0301673  44.6178553  53.1844913   8.0501673
  32.7638553  58.9274913   8.7241673  33.1948553  58.7984913   7.9771673
  32.5588553  59.7754913   8.6981673  32.7968553  59.0334913   8.6101673
  48.1638553  64.9184913  13.8711673  47.4928553  65.4324913  14.0891673
  48.2268553  65.0184913  13.0071673  48.0738553  65.0094913  13.7761673
  36.8478553  62.4434913   7.0061673  36.9738553  63.2864913   7.1931673
  37.5158553  62.0444913   7.4021673  36.9658553  62.5094913   7.0921673
  34.9778553  55.9264913  16.8681673  34.4418553  55.4204913  17.3361673
  34.9978553  55.5364913  16.0881673  34.9008553  55.7934913  16.8221673
  35.6298553  57.1534913   8.6071673  34.8488553  57.0944913   8.2241673
  35.7018553  56.4014913   9.0441673  35.5248553  57.0344913   8.6151673
  36.0598553  56.8904913  12.0751673  36.0848553  56.2154913  11.5241673
  35.4138553  57.3864913  11.7631673  35.9688553  56.8634913  11.9481673
  45.9548553  54.6034913  10.4711673  45.2928553  54.9314913  10.9341673
  46.1418553  55.2374913   9.9021673  45.8848553  54.7454913  10.4551673
  40.1598553  65.6674913  11.4671673  39.8828553  65.0264913  10.9441673
  39.9518553  66.3934913  11.0291673  40.0888553  65.6804913  11.3251673
  42.5998553  50.5094913  13.9001673  42.7488553  49.6844913  13.6571673
  42.9788553  50.5644913  14.6841673  42.6778553  50.3954913  13.9801673
  44.1478553  52.5724913   3.9821673  44.6378553  53.2894913   3.9051673
  43.3578553  52.8334913   3.7191673  44.1038553  52.7164913   3.9321673
  33.8588553  58.2454913  17.6341673  33.8218553  58.7464913  16.9201673
  34.1898553  57.4934913  17.3391673  33.9018553  58.2074913  17.4851673
  45.4618553  60.4504913  15.8921673  45.9458553  61.1684913  15.9901673
  45.8558553  60.0234913  15.2411673  45.5918553  60.4934913  15.8101673
  39.7578553  63.2954913  17.0691673  40.1118553  63.1174913  17.8461673
  39.3218553  62.5664913  16.8701673  39.7458553  63.1614913  17.1551673
  40.7298553  54.0424913   9.7071673  41.2098553  54.7414913   9.9151673
  41.1028553  53.3954913  10.1581673  40.8558553  54.0504913   9.8041673
  47.8908553  61.0814913   5.9621673  48.2468553  60.7314913   6.6771673
  47.8828553  60.4204913   5.3921673  47.9428553  60.9314913   5.9831673
  43.9358553  64.1474913   9.8061673  43.3328553  63.8514913   9.2491673
  44.4808553  64.5994913   9.2971673  43.9268553  64.1704913   9.6481673
  43.9488553  60.9984913   9.2061673  43.1518553  61.2224913   9.4801673
  44.2068553  60.4044913   9.7911673  43.8688553  60.9434913   9.3331673
  37.8408553  65.8104913   3.6541673  37.6938553  65.0344913   4.0251673
  38.5298553  65.6634913   3.1391673  37.9208553  65.6734913   3.6331673
  47.2088553  58.9964913  14.0521673  47.2638553  59.1214913  13.1901673
  47.9618553  59.3164913  14.3541673  47.3278553  59.0614913  13.9691673
  43.3998553  64.3454913  18.3291673  43.5638553  64.6284913  19.1381673
  43.6628553  65.0064913  17.8241673  43.4628553  64.4854913  18.3741673
  48.2408553  49.2944913  17.0391673  47.6038553  48.8944913  16.5971673
  48.2668553  48.8634913  17.7971673  48.1508553  49.1724913  17.0851673
  34.6338553  57.8604913   2.8851673  34.9578553  57.0814913   2.6631673
  35.2798553  58.2284913   3.3401673  34.7768553  57.7994913   2.9191673
  42.9398553  58.8024913  13.6521673  42.7848553  59.4124913  14.2561673
  43.4738553  58.2444913  14.0581673  42.9958553  58.8104913  13.8011673
  31.6308553  49.5214913   3.8531673  31.7598553  48.8134913   3.3611673
  31.2638553  49.2034913   4.5781673  31.5958553  49.3694913   3.8881673
  41.3238553  57.2024913   4.3101673  41.3828553  57.8524913   4.8891673
  41.1348553  56.5064913   4.8011673  41.3048553  57.1954913   4.4681673
  46.5498553  61.5314913  10.1791673  46.0708553  61.8294913   9.5131673
  46.1938553  60.7554913  10.3571673  46.4268553  61.4604913  10.1071673
  40.5468553  59.2494913   8.7411673  39.6998553  59.0554913   8.8221673
  40.8708553  59.0844913   9.5341673  40.4688553  59.1964913   8.8701673
  34.3948553  58.9424913  11.0571673  35.1168553  59.4304913  11.0201673
  34.1248553  58.9124913  10.2281673  34.4618553  59.0104913  10.9291673
  37.6248553  54.1134913   7.7921673  38.4708553  53.9234913   7.8901673
  37.2548553  53.3364913   7.6541673  37.6948553  53.9704913   7.7861673
  50.2418553  65.6974913   2.1191673  50.9358553  65.2304913   1.8711673
  49.7028553  65.0994913   2.4561673  50.2648553  65.5394913   2.1321673
  32.4458553  55.4514913   4.4471673  32.9348553  55.1594913   5.1081673
  32.5748553  54.8584913   3.8201673  32.5368553  55.3204913   4.4521673
  47.4808553  58.4734913  11.2981673  47.4738553  57.6974913  11.6961673
  46.6398553  58.7074913  11.2911673  47.3558553  58.3934913  11.3561673
  33.7898553  59.9944913  15.3351673  33.3688553  59.4764913  14.7741673
  33.4378553  60.7804913  15.1921673  33.6758553  60.0344913  15.2311673
  48.7368553  58.5444913   8.7351673  48.4508553  58.9454913   9.4551673
  49.5968553  58.4824913   8.8621673  48.8218553  58.5944913   8.8601673
  38.4258553  55.3464913   2.6431673  38.6978553  56.1724913   2.7101673
  37.5628553  55.4214913   2.5471673  38.3388553  55.4794913   2.6381673
  46.3988553  52.4684913  17.2751673  45.8738553  52.9274913  17.7991673
  46.0378553  51.6734913  17.2691673  46.2678553  52.4184913  17.3511673
  31.9058553  51.3164913   9.1791673  31.9498553  51.6604913   8.3781673
  32.6608553  51.5534913   9.5461673  32.0238553  51.4024913   9.1151673
  49.8678553  64.1774913   9.2641673  50.1578553  64.4344913   8.4831673
  50.5628553  64.2734913   9.7831673  50.0138553  64.2294913   9.2251673
  44.8908553  56.0374913  17.3511673  44.9638553  56.1414913  18.2141673
  44.2568553  56.5954913  17.1301673  44.8078553  56.1354913  17.4461673
  47.1588553  56.3564913  15.7161673  47.4778553  57.1424913  15.9191673
  46.7888553  56.0864913  16.4591673  47.1518553  56.4324913  15.8561673
  46.9548553  54.6144913   6.9051673  46.2098553  54.2914913   7.2231673
  46.9568553  55.4404913   7.1851673  46.8448553  54.6884913   6.9931673
  49.8568553  56.8984913  18.4511673  49.8048553  56.5574913  17.6501673
  50.5938553  57.3654913  18.4291673  49.9578553  56.9174913  18.3291673
  49.3948553  60.5744913  14.6571673  50.0228553  60.0254913  14.4011673
  49.3338553  61.1394913  13.9951673  49.4788553  60.5774913  14.5211673
  38.5288553  61.8054913  11.9531673  38.2308553  62.3974913  12.5201673
  38.5838553  62.2474913  11.2041673  38.4928553  61.9584913  11.9261673
  36.5078553  60.7554913  15.3511673  35.7018553  60.4654913  15.5181673
  36.4188553  61.6234913  15.3571673  36.3758553  60.8404913  15.3761673
  45.8668553  50.9444913  14.3661673  46.6108553  51.3964913  14.3031673
  45.3008553  51.4144913  13.8971673  45.8938553  51.0814913  14.2881673
  41.0448553  58.2284913  11.4441673  41.5208553  58.6024913  12.0721673
  40.2218553  58.3624913  11.7031673  40.9938553  58.3034913  11.5751673
  37.7548553  53.8314913  14.1851673  37.9158553  53.0874913  14.6121673
  37.7098553  53.5824913  13.3501673  37.7718553  53.6844913  14.1251673
  40.3088553  65.6214913   6.6721673  40.8548553  66.3004913   6.7261673
  39.9588553  65.7034913   5.8771673  40.3378553  65.7344913   6.5621673
  47.1518553  48.9244913  12.0361673  46.8718553  49.7494913  11.9921673
  47.8678553  48.9774913  12.5321673  47.2168553  49.0544913  12.1031673
  39.5068553  49.6394913  14.0651673  40.2118553  49.9594913  13.6631673
  39.7478553  48.8324913  14.2921673  39.6458553  49.5674913  14.0391673
  38.4918553  63.8494913  10.0611673  37.8678553  64.4314913   9.8791673
  38.7398553  63.5634913   9.2751673  38.4358553  63.8934913   9.9181673
  42.8008553  60.4834913  17.0501673  43.5578553  60.7694913  16.7241673
  42.2538553  60.5354913  16.3721673  42.8318553  60.5334913  16.9011673
  46.7098553  63.0334913  15.5541673  47.0558553  63.3034913  16.3081673
  47.0038553  63.6154913  14.9741673  46.8048553  63.1594913  15.5801673
  36.0158553  54.6924913  10.1261673  36.4558553  54.5894913   9.3801673
  36.5608553  54.3794913  10.7311673  36.1608553  54.6314913  10.1051673
  44.0318553  53.7944913  15.7181673  43.3838553  54.2644913  16.0661673
  44.5968553  53.7054913  16.3771673  44.0198553  53.8504913  15.8671673
  43.7198553  55.3314913  12.0161673  44.0218553  55.7514913  12.7191673
  43.7558553  54.4914913  12.2481673  43.7698553  55.2694913  12.1541673
  41.1448553  65.4984913  15.9411673  41.6228553  64.8984913  15.5251673
  40.7938553  65.0554913  16.6061673  41.1638553  65.3444913  15.9781673
  46.2678553  54.7784913   4.2681673  46.4748553  54.5774913   5.0921673
  47.0238553  55.0464913   3.9261673  46.4098553  54.7884913   4.3391673
  39.5628553  49.6774913  10.1731673  38.7368553  49.5284913  10.4101673
  39.5228553  49.7124913   9.3021673  39.4348553  49.6604913  10.0791673
  47.2898553  50.8614913   5.7421673  46.5758553  50.3904913   5.9131673
  47.1278553  51.2024913   4.9561673  47.1608553  50.8424913   5.6511673
  47.7328553  58.8054913   4.1221673  48.2088553  58.0764913   4.0741673
  46.9118553  58.5194913   4.0461673  47.6818553  58.6554913   4.1031673
  41.2038553  60.7174913  14.9611673  40.4088553  60.6534913  15.3121673
  41.2748553  61.5644913  14.7661673  41.0968553  60.8324913  14.9841673
  32.1278553  50.0754913  16.2081673  31.9878553  50.8704913  15.8771673
  31.3418553  49.8324913  16.4971673  31.9908553  50.1574913  16.2021673
  37.0338553  66.9244913  10.2781673  37.0448553  66.9834913  11.1481673
  36.6088553  66.1774913  10.1281673  36.9728553  66.8224913  10.3841673
  35.1918553  52.8194913   3.4331673  35.3178553  52.4904913   2.6351673
  34.3798553  52.5704913   3.6321673  35.0908553  52.7344913   3.3451673
  43.9488553  59.9724913   6.4771673  44.0248553  60.3134913   7.2761673
  44.1178553  59.1254913   6.5981673  43.9848553  59.8974913   6.6131673
  41.4708553  59.2464913   6.0421673  41.1728553  58.9314913   6.7991673
  42.1658553  59.7194913   6.2771673  41.5298553  59.2694913   6.1891673
  41.6928553  63.3644913  14.0691673  42.3798553  63.2504913  14.5941673
  41.8268553  64.1554913  13.7251673  41.8138553  63.4644913  14.0961673
  49.8688553  55.9734913  15.8801673  49.0138553  55.8514913  16.0061673
  50.0218553  55.5784913  15.1171673  49.7648553  55.8964913  15.7861673
  44.3818553  56.6384913  14.4561673  44.1268553  55.9194913  14.8781673
  45.2028553  56.7544913  14.7261673  44.4658553  56.5494913  14.5581673
  33.7978553  66.4224913  15.7201673  33.1438553  65.8534913  15.8181673
  33.4228553  67.1954913  15.8711673  33.6458553  66.4524913  15.7571673
  42.3158553  57.8284913  17.6431673  42.6388553  58.5144913  17.2111673
  41.6118553  58.1514913  18.0451673  42.2588553  57.9774913  17.6381673
  45.3998553  66.2024913   8.5721673  44.9488553  66.8454913   8.9511673
  46.1078553  66.1234913   9.0771673  45.4378553  66.2854913   8.7031673
  42.1008553  61.2924913  11.5021673  41.4068553  61.6944913  11.8451673
  42.7778553  61.7254913  11.8411673  42.0978553  61.4154913  11.6031673
  47.4778553  63.8854913  18.0821673  48.2538553  63.4954913  18.1651673
  47.0088553  63.5494913  18.7371673  47.5228553  63.7784913  18.1911673
  35.1688553  54.8304913  13.8491673  35.5438553  55.4494913  13.3621673
  35.8428553  54.3564913  14.1341673  35.3238553  54.8524913  13.8191673
  32.9438553  53.2784913  13.1241673  33.0208553  53.1094913  12.2711673
  33.6898553  53.6844913  13.3211673  33.0648553  53.3134913  13.0271673
  48.5028553  55.9184913   3.5641673  48.6058553  55.8604913   2.7001673
  49.2438553  55.5864913   3.8821673  48.6278553  55.8614913   3.4831673
  35.4978553  50.6884913  15.5351673  35.4168553  49.8444913  15.7411673
  35.1838553  50.7324913  14.7221673  35.4398553  50.5704913  15.4451673
  42.4228553  62.8834913   4.6711673  42.2178553  63.7164913   4.5121673
  41.6478553  62.5014913   4.7931673  42.2778553  62.9504913   4.6661673
  47.6048553  56.0644913  12.9201673  47.6028553  55.2014913  13.0441673
  47.6718553  56.3884913  13.7271673  47.6148553  55.9844913  13.0571673
  32.3408553  58.5044913  13.3481673  32.6608553  58.7234913  12.5671673
  32.2408553  57.6394913  13.2931673  32.3728553  58.4094913  13.2251673
  43.4838553  50.8644913  16.7021673  43.5758553  51.5764913  17.1961673
  42.8468553  50.4194913  17.0991673  43.4028553  50.9034913  16.8341673
  42.4778553  51.0544913   7.5561673  41.7778553  51.5724913   7.5001673
  42.5158553  50.6744913   6.7721673  42.3798553  51.0754913   7.4321673
  46.0758553  51.5704913  10.3561673  46.9308553  51.6694913  10.5011673
  45.7068553  52.1234913  10.9211673  46.1478553  51.6674913  10.4611673
  37.1038553  57.7964913  14.7331673  36.7078553  58.5704913  14.8081673
  36.6978553  57.4234913  14.0571673  36.9858553  57.8554913  14.6441673
  46.3798553  56.8504913   8.8471673  47.0458553  57.3914913   9.0071673
  46.0348553  57.1614913   8.1081673  46.4268553  56.9764913   8.7621673
  46.6928553  64.9164913   4.6541673  46.5188553  64.2624913   5.2041673
  47.4058553  64.6454913   4.2311673  46.7728553  64.7794913   4.6731673
  37.5328553  50.7734913  12.1831673  36.6688553  50.8574913  12.2631673
  37.7528553  50.2594913  12.8521673  37.4378553  50.7104913  12.2941673
  49.5508553  49.4084913  13.5121673  49.4988553  49.3644913  14.3821673
  50.2378553  48.9054913  13.3221673  49.6448553  49.3284913  13.6121673
  41.6358553  51.5214913  10.5571673  40.8988553  51.0674913  10.6701673
  42.2068553  51.1194913  11.0801673  41.6108553  51.3944913  10.6511673
  44.3678553  62.3694913  12.3451673  44.5738553  62.6704913  13.1371673
  44.3068553  63.0914913  11.8601673  44.3888553  62.5204913  12.3901673
  43.9018553  66.5834913  16.5911673  43.1488553  66.5654913  16.1501673
  44.0698553  67.4354913  16.6751673  43.8158553  66.7064913  16.5381673
  39.1388553  55.8504913  15.7611673  38.8168553  55.2744913  15.1911673
  38.7798553  56.6054913  15.5151673  39.0388553  55.8764913  15.6411673
  49.1798553  61.0084913  11.8031673  49.1478553  60.1464913  11.6681673
  48.4868553  61.3104913  11.3691673  49.0728553  60.9254913  11.7191673
  37.5738553  66.2064913  16.0091673  37.6148553  66.3324913  16.8721673
  38.2248553  65.6464913  15.8531673  37.6758553  66.1424913  16.1141673
  47.2848553  64.2684913  10.6001673  47.8118553  64.1854913   9.9091673
  46.8938553  63.4904913  10.6541673  47.3048553  64.1414913  10.5061673
  34.7528553  50.8564913  12.8311673  34.4098553  50.0894913  12.5971673
  34.0578553  51.3804913  12.8951673  34.5998553  50.8204913  12.8061673
  43.7988553  49.7124913   9.8081673  44.4688553  50.2564913   9.9351673
  43.2958553  50.1364913   9.2351673  43.8238553  49.8554913   9.7421673
  35.1668553  64.5894913  17.3691673  35.7618553  65.0204913  17.8411673
  34.8028553  65.2134913  16.8801673  35.2008553  64.7454913  17.3661673
  43.1578553  55.5204913   7.3011673  43.7088553  54.9134913   7.6011673
  42.7328553  55.7834913   8.0161673  43.1768553  55.4694913   7.4501673
  33.4058553  54.1704913   6.7871673  33.0378553  54.4724913   7.5181673
  33.9398553  53.5414913   7.0711673  33.4298553  54.1224913   6.9371673
  33.0938553  62.5784913  14.2981673  32.5198553  62.9944913  14.8071673
  33.8268553  63.0434913  14.3931673  33.1178553  62.7084913  14.3871673
  45.1278553  57.3514913   3.8631673  45.1958553  56.5014913   4.0441673
  44.3048553  57.4374913   3.5851673  45.0158553  57.2384913   3.8491673
  34.8798553  65.8454913   3.0731673  34.7348553  66.0014913   2.2271673
  35.7458553  65.9244913   3.1511673  34.9868553  65.8804913   2.9601673
  39.0468553  58.2424913   2.8011673  39.1468553  58.3814913   1.9461673
  39.8648553  58.1824913   3.0971673  39.1818553  58.2534913   2.7181673
  48.4018553  58.7244913  17.0141673  49.0358553  58.5544913  17.5881673
  48.8188553  59.1274913  16.3621673  48.5568553  58.7594913  17.0031673
  44.2818553  62.5714913   2.6031673  44.0308553  62.4434913   3.4291673
  43.9648553  61.8764913   2.1821673  44.1978553  62.4504913   2.6631673
  49.0268553  53.2884913  17.7521673  48.8308553  53.9324913  18.3071673
  48.3048553  52.7984913  17.7441673  48.8918553  53.3114913  17.8331673
  48.9258553  54.2294913  10.7231673  48.0928553  54.4794913  10.6511673
  48.8698553  53.3894913  10.9521673  48.7948553  54.1424913  10.7461673
  38.1858553  51.2174913  15.9171673  38.4198553  50.6414913  15.3041673
  37.3438553  51.0364913  16.0581673  38.0958553  51.1054913  15.8471673
  45.8128553  58.8354913  18.3691673  46.6838553  58.7994913  18.3331673
  45.5938553  59.2554913  17.6371673  45.9098553  58.8914913  18.2561673
  35.5668553  64.6604913   9.5501673  35.4878553  63.8504913   9.2341673
  35.1228553  65.1474913   8.9781673  35.4898553  64.6124913   9.4191673
  41.1678553  60.7794913   2.0331673  41.8848553  60.4324913   1.6771673
  41.1338553  61.5794913   1.6851673  41.2688553  60.8464913   1.9291673
  33.1388553  66.9044913  13.1311673  33.6318553  66.8484913  13.8491673
  33.3268553  66.1714913  12.6961673  33.2398553  66.7874913  13.1731673
  42.5768553  30.9423833  81.3031313  42.3318553  31.4303833  80.6231313
  43.4398553  30.8693833  81.2031313  42.6678553  31.0033833  81.1881313
  42.3858553  37.8583833  85.9741313  41.8618553  38.4543833  86.3371313
  42.7828553  37.4903833  86.6581313  42.3668553  37.8923833  86.1291313
  32.2548553  41.9983833  81.4301313  31.8138553  42.1163833  82.1731313
  31.9718553  41.2233833  81.1451313  32.1478553  41.9013833  81.4981313
  48.5298553  45.2993833  78.9451313  49.2308553  44.7803833  78.9411313
  47.9428553  44.8543833  78.4761313  48.5468553  45.1563833  78.8751313
  31.9978553  35.7903833  77.9371313  31.2198553  35.9523833  77.5771313
  32.0368553  34.9193833  77.9591313  31.8888553  35.6853833  77.8871313
  35.1368553  41.0533833  76.6091313  34.7448553  40.6823833  75.9231313
  35.0568553  40.4553833  77.2381313  35.0668553  40.9103833  76.6001313
  45.0568553  38.9253833  82.6501313  45.1368553  38.9293833  81.7811313
  44.4728553  38.2933833  82.7991313  44.9818553  38.8323833  82.5441313
  34.7638553  42.6943833  80.5091313  35.3718553  42.5243833  81.1121313
  34.0128553  42.5543833  80.9301313  34.7428553  42.6483833  80.6601313
  39.0458553  32.0293833  80.4581313  38.9758553  32.7063833  79.9121313
  39.7868553  31.6413833  80.2091313  39.1448553  32.0723833  80.3401313
  33.6548553  45.7853833  76.5861313  34.1218553  45.8693833  75.8541313
  34.1098553  45.2073833  77.0551313  33.7908553  45.7123833  76.5471313
  32.1948553  44.7333833  87.6851313  32.3238553  44.4533833  88.5011313
  31.5848553  44.1923833  87.3761313  32.1238553  44.6123833  87.7601313
  33.6408553  39.2543833  81.8871313  33.1788553  38.8623833  81.2601313
  34.3408553  38.7413833  81.9791313  33.6758553  39.1213833  81.8081313
  38.1488553  34.8643833  87.2341313  38.8268553  34.8823833  86.6851313
  38.1038553  34.0283833  87.4791313  38.2418553  34.7433833  87.1891313
  38.7508553  45.4503833  90.0151313  38.8888553  46.2103833  89.6081313
  39.5418553  45.0853833  90.0421313  38.8878553  45.5093833  89.9591313
  35.6418553  37.3543833  81.9101313  36.4588553  37.1673833  82.1531313
  35.1648553  36.7403833  82.3061313  35.6918553  37.2363833  82.0051313
  39.8458553  43.3353833  84.5201313  40.1938553  42.5363833  84.5501313
  40.5108553  43.8393833  84.2651313  39.9958553  43.2913833  84.4871313
  39.9028553  42.7843833  80.7311313  40.2338553  42.1403833  81.2171313
  40.1428553  42.5733833  79.9201313  39.9868553  42.6583833  80.6831313
  41.8708553  36.9153833  92.0701313  41.0228553  36.8163833  91.8921313
  41.8998553  37.6603833  92.5241313  41.7498553  37.0113833  92.1111313
  36.2388553  32.4483833  81.1761313  35.9428553  32.9493833  80.5261313
  37.1058553  32.5263833  81.1191313  36.3228553  32.5343833  81.0721313
  46.4288553  29.8753833  91.1841313  46.2708553  30.6443833  90.8021313
  45.6568553  29.6553833  91.5281313  46.2908553  29.9563833  91.1791313
  39.2178553  31.5903833  83.3991313  39.2908553  32.4503833  83.5281313
  39.1798553  31.5153833  82.5311313  39.2228553  31.7063833  83.2901313
  43.8908553  34.5163833  75.6981313  43.4408553  35.1973833  76.0051313
  44.0048553  34.0123833  76.4011313  43.8418553  34.5423833  75.8471313
  32.0968553  37.0153833  84.9001313  31.8408553  37.8463833  84.8251313
  31.4328553  36.6323833  85.3171313  31.9608553  37.0813833  84.9511313
  32.0068553  46.7253833  82.8001313  31.4148553  47.2833833  82.4871313
  32.4328553  46.4563833  82.0881313  31.9828553  46.7673833  82.6491313
  37.8468553  44.5693833  80.2801313  37.2678553  44.2943833  80.8721313
  38.4708553  43.9603833  80.3051313  37.8538553  44.4393833  80.3711313
  43.9898553  46.8573833  77.8021313  44.7168553  47.3293833  77.9041313
  44.2188553  46.0633833  78.0821313  44.1318553  46.8103833  77.8591313
  42.1578553  47.2493833  79.7921313  42.3718553  47.7763833  80.4541313
  42.9248553  47.0753833  79.4131313  42.3028553  47.3013833  79.8341313
  35.1258553  31.8323833  85.3911313  34.6048553  31.2043833  85.0831313
  35.7168553  31.3953833  85.8621313  35.1368553  31.6743833  85.4151313
  33.5518553  45.3953833  80.7311313  34.2078553  44.8203833  80.7461313
  33.9408553  46.1443833  80.5101313  33.7068553  45.4203833  80.7011313
  49.2848553  34.4893833  81.9931313  48.9388553  35.1673833  82.4191313
  48.6488553  33.8913833  82.0091313  49.1398553  34.5013833  82.0581313
  44.5968553  47.2593833  88.0971313  45.3408553  47.7153833  88.0871313
  44.4758553  47.0453833  87.2601313  44.6888553  47.2953833  87.9721313
  34.3698553  43.8823833  84.2311313  34.7928553  43.5263833  83.5571313
  34.6938553  43.4603833  84.9231313  34.4798553  43.7673833  84.2341313
  37.6008553  46.7343833  83.5271313  38.4448553  46.8383833  83.3321313
  37.3038553  47.5523833  83.5951313  37.6818553  46.8703833  83.5081313
  41.4078553  36.1313833  81.6141313  41.6948553  35.8993833  80.8241313
  42.1398553  36.2103833  82.0831313  41.5578553  36.1083833  81.5671313
  42.1298553  36.4703833  76.7351313  42.4108553  37.2583833  76.9841313
  41.3538553  36.6353833  76.3721313  42.0568553  36.6113833  76.7181313
  46.1708553  48.4443833  78.2021313  46.8358553  48.2963833  77.6571313
  46.5308553  48.3613833  78.9921313  46.3228553  48.4103833  78.2381313
  36.5988553  47.9533833  89.2671313  36.8908553  47.8863833  90.0871313
  35.9728553  47.3483833  89.2221313  36.5498553  47.8543833  89.3821313
  48.9598553  32.8123833  87.3621313  49.7168553  32.8843833  86.9341313
  49.0228553  32.0393833  87.7611313  49.0808553  32.7093833  87.3571313
  31.5128553  34.1103833  91.2591313  31.5088553  34.6973833  91.9051313
  32.1068553  34.4223833  90.7021313  31.5998553  34.2433833  91.2721313
  43.8508553  44.4443833  91.8011313  43.8168553  44.8263833  92.5851313
  44.7048553  44.4023833  91.6301313  43.9718553  44.4943833  91.8921313
  40.9888553  44.6413833  76.5511313  40.8078553  45.1863833  77.2081313
  41.7548553  44.9313833  76.2501313  41.0748553  44.7653833  76.6041313
  44.4958553  32.5373833  77.6051313  45.0358553  31.8553833  77.6811313
  44.5578553  32.9353833  78.3791313  44.5848553  32.4953833  77.7311313
  32.4498553  33.7053833  80.1741313  32.3358553  32.8413833  80.2051313
  31.9748553  33.9993833  80.8441313  32.3628553  33.6213833  80.2771313
  34.5918553  46.1153833  88.3891313  33.8938553  45.6073833  88.5151313
  34.8518553  45.9103833  87.5811313  34.5268553  46.0103833  88.2881313
  41.7538553  34.9133833  78.9191313  41.2458553  34.2513833  78.6651313
  41.8058553  35.4173833  78.2091313  41.6868553  34.8903833  78.7771313
  42.3028553  47.6083833  89.2991313  43.0708553  47.5283833  88.8931313
  41.7198553  47.4873833  88.6611313  42.3298553  47.5783833  89.1451313
  41.7538553  31.8543833  78.8101313  41.2988553  31.4523833  78.1841313
  42.5268553  32.0093833  78.4351313  41.8008553  31.8183833  78.6621313
  48.5798553  48.2113833  82.2001313  48.1248553  48.9283833  82.4011313
  47.9658553  47.6403833  81.9581313  48.4218553  48.2333833  82.1941313
  40.3518553  34.2213833  83.3321313  40.4258553  34.7893833  82.6741313
  40.4728553  34.7133833  84.0421313  40.3798553  34.3783833  83.3401313
  45.5768553  44.0563833  81.7441313  46.2778553  43.5743833  81.9331313
  44.9168553  43.4873833  81.7891313  45.5828553  43.9013833  81.7781313
  35.9528553  44.9663833  90.9561313  36.7938553  45.0293833  90.7341313
  35.9158553  45.3633833  91.7321313  36.0718553  45.0343833  91.0381313
  34.9598553  30.0443833  81.6801313  35.4958553  30.7323833  81.6701313
  34.9628553  29.7703833  80.8521313  35.0388553  30.1053833  81.5561313
  37.9158553  40.4773833  85.7051313  38.0878553  40.2673833  86.5341313
  37.2608553  39.9433833  85.4891313  37.8448553  40.3673833  85.7961313
  44.1438553  34.3913833  89.2201313  44.0488553  34.7103833  90.0261313
  43.5508553  33.7523833  89.1821313  44.0418553  34.3433833  89.3341313
  38.6658553  40.4153833  88.2951313  38.7188553  41.2623833  88.4971313
  38.3808553  40.0453833  89.0321313  38.6318553  40.4853833  88.4331313
  44.8428553  41.1103833  87.4251313  44.3288553  40.6983833  87.9961313
  44.7168553  41.9543833  87.6061313  44.7488553  41.1743833  87.5361313
  45.3998553  30.3353833  82.0561313  45.4488553  30.0173833  82.8671313
  45.7228553  29.6913833  81.5631313  45.4548553  30.1933833  82.1031313
  47.8638553  34.5713833  90.3641313  48.6358553  34.3463833  90.7011313
  47.3888553  34.7883833  91.0641313  47.9078553  34.5703833  90.5171313
  35.4078553  33.8543833  83.3341313  35.6798553  33.4243833  82.6261313
  35.2318553  33.2183833  83.9051313  35.4218553  33.6973833  83.3141313
  48.0958553  41.5493833  77.5521313  48.2148553  41.2623833  78.3671313
  48.9028553  41.5703833  77.2221313  48.2318553  41.5103833  77.6241313
  35.2318553  41.2813833  82.8831313  36.0828553  41.2013833  82.7101313
  34.8748553  40.5993833  82.4711313  35.3048553  41.1683833  82.7961313
  33.9988553  48.0063833  84.1201313  33.3258553  47.5083833  83.8751313
  34.4018553  48.1913833  83.3691313  33.9588553  47.9603833  83.9731313
  33.5488553  34.9563833  86.4161313  34.3918553  35.1763833  86.3731313
  33.1598553  35.5293833  85.8851313  33.6158553  35.0733833  86.3311313
  50.3298553  46.0583833  91.8061313  49.6478553  46.3683833  91.3591313
  49.9608553  45.6003833  92.4511313  50.1738553  46.0363833  91.8351313
  45.9908553  38.0863833  77.1371313  45.7708553  38.8173833  76.7151313
  45.5428553  38.1373833  77.8841313  45.8918553  38.2013833  77.1851313
  37.5998553  41.2883833  81.1181313  38.3128553  41.7833833  81.2081313
  37.8218553  40.7213833  80.4921313  37.7378553  41.2773833  81.0391313
  50.1778553  32.9473833  76.5901313  49.5158553  32.3793833  76.6131313
  49.9848553  33.4593833  75.9101313  50.0518553  32.9393833  76.4931313
  31.7558553  42.9313833  84.4381313  31.0888553  43.4193833  84.7141313
  32.4358553  43.4763833  84.4671313  31.7578553  43.0833833  84.4831313
  50.5008553  37.3253833  89.1461313  50.7158553  36.5253833  88.8701313
  49.6508553  37.3853833  88.9571313  50.4068553  37.2163833  89.0771313
  31.8218553  39.6153833  79.5411313  31.6368553  38.7763833  79.6931313
  32.4808553  39.5793833  78.9711313  31.8918553  39.4863833  79.4791313
  48.1798553  32.5053833  78.8691313  48.9258553  32.0983833  79.0681313
  48.4428553  33.2203833  78.4441313  48.3288553  32.5513833  78.8361313
  42.1228553  44.9913833  83.4451313  41.5998553  45.6253833  83.1521313
  42.4328553  44.6273833  82.7161313  42.0908553  45.0313833  83.2941313
  31.9938553  43.7793833  79.1161313  32.5458553  44.3483833  79.4801313
  31.7618553  43.2643833  79.7811313  32.0408553  43.7873833  79.2681313
  36.1978553  42.7793833  86.2051313  36.6648553  43.0683833  86.8831313
  36.7698553  42.3013833  85.7511313  36.3518553  42.7513833  86.2381313
  44.6338553  34.7933833  83.9421313  44.9778553  34.9453833  84.7291313
  44.1808553  34.0553833  84.0551313  44.6178553  34.7063833  84.0751313
  31.8238553  42.2283833  76.7441313  32.5798553  41.7963833  76.8021313
  31.8388553  42.7603833  77.4351313  31.9378553  42.2433833  76.8551313
  32.7638553  40.4493833  84.7491313  33.1948553  40.3203833  84.0021313
  32.5588553  41.2973833  84.7231313  32.7968553  40.5553833  84.6351313
  39.1098553  34.0133833  78.3991313  39.1078553  33.8963833  77.5341313
  38.9288553  34.8613833  78.4911313  39.0828553  34.1213833  78.2851313
  48.1638553  46.4403833  89.8961313  47.4928553  46.9543833  90.1141313
  48.2268553  46.5403833  89.0321313  48.0738553  46.5313833  89.8011313
  36.8478553  43.9653833  83.0311313  36.9738553  44.8083833  83.2181313
  37.5158553  43.5663833  83.4271313  36.9658553  44.0313833  83.1171313
  35.4628553  36.8453833  78.0331313  35.3348553  36.3973833  78.7711313
  34.8808553  36.5033833  77.4811313  35.3578553  36.7283833  78.0611313
  35.6298553  38.6753833  84.6321313  34.8488553  38.6163833  84.2491313
  35.7018553  37.9233833  85.0691313  35.5248553  38.5563833  84.6401313
  36.0598553  38.4123833  88.1001313  36.0848553  37.7373833  87.5491313
  35.4138553  38.9083833  87.7881313  35.9688553  38.3853833  87.9731313
  45.9548553  36.1253833  86.4961313  45.2928553  36.4533833  86.9591313
  46.1418553  36.7593833  85.9271313  45.8848553  36.2673833  86.4801313
  40.1598553  47.1893833  87.4921313  39.8828553  46.5483833  86.9691313
  39.9518553  47.9153833  87.0541313  40.0888553  47.2023833  87.3501313
  42.5998553  32.0313833  89.9251313  42.7488553  31.2063833  89.6821313
  42.9788553  32.0863833  90.7091313  42.6778553  31.9173833  90.0051313
  44.1478553  34.0943833  80.0071313  44.6378553  34.8113833  79.9301313
  43.3578553  34.3553833  79.7441313  44.1038553  34.2383833  79.9571313
  45.4618553  41.9723833  91.9171313  45.9458553  42.6903833  92.0151313
  45.8558553  41.5453833  91.2661313  45.5918553  42.0153833  91.8351313
  40.7298553  35.5643833  85.7321313  41.2098553  36.2633833  85.9401313
  41.1028553  34.9173833  86.1831313  40.8558553  35.5723833  85.8291313
  42.9188553  38.7333833  78.0061313  42.9108553  39.4553833  77.5161313
  42.2798553  38.8683833  78.5831313  42.8238553  38.8603833  78.0191313
  47.8908553  42.6033833  81.9871313  48.2468553  42.2533833  82.7021313
  47.8828553  41.9423833  81.4171313  47.9428553  42.4533833  82.0081313
  43.9358553  45.6693833  85.8311313  43.3328553  45.3733833  85.2741313
  44.4808553  46.1213833  85.3221313  43.9268553  45.6923833  85.6731313
  43.9488553  42.5203833  85.2311313  43.1518553  42.7443833  85.5051313
  44.2068553  41.9263833  85.8161313  43.8688553  42.4653833  85.3581313
  37.8408553  47.3323833  79.6791313  37.6938553  46.5563833  80.0501313
  38.5298553  47.1853833  79.1641313  37.9208553  47.1953833  79.6581313
  37.5118553  31.0753833  77.6671313  37.6088553  30.9683833  78.5281313
  36.8038553  31.5813833  77.6021313  37.4218553  31.1343833  77.7851313
  40.1328553  46.8483833  78.0811313  40.7548553  47.0113833  78.6711313
  40.1688553  47.5393833  77.5491313  40.2298553  46.9743833  78.0901313
  47.2088553  40.5183833  90.0771313  47.2638553  40.6433833  89.2151313
  47.9618553  40.8383833  90.3791313  47.3278553  40.5833833  89.9941313
  34.6338553  39.3823833  78.9101313  34.9578553  38.6033833  78.6881313
  35.2798553  39.7503833  79.3651313  34.7768553  39.3213833  78.9441313
  42.9398553  40.3243833  89.6771313  42.7848553  40.9343833  90.2811313
  43.4738553  39.7663833  90.0831313  42.9958553  40.3323833  89.8261313
  31.6308553  31.0433833  79.8781313  31.7598553  30.3353833  79.3861313
  31.2638553  30.7253833  80.6031313  31.5958553  30.8913833  79.9131313
  41.3238553  38.7243833  80.3351313  41.3828553  39.3743833  80.9141313
  41.1348553  38.0283833  80.8261313  41.3048553  38.7173833  80.4931313
  46.5498553  43.0533833  86.2041313  46.0708553  43.3513833  85.5381313
  46.1938553  42.2773833  86.3821313  46.4268553  42.9823833  86.1321313
  35.8198553  33.2413833  76.8471313  35.3088553  33.2943833  76.1411313
  36.6038553  33.4813833  76.5511313  35.8598553  33.2843833  76.6991313
  40.5468553  40.7713833  84.7661313  39.6998553  40.5773833  84.8471313
  40.8708553  40.6063833  85.5591313  40.4688553  40.7183833  84.8951313
  37.2988553  47.5013833  75.6521313  37.7378553  46.8043833  75.9401313
  37.5058553  48.1253833  76.2251313  37.3948553  47.4903833  75.7791313
  34.3948553  40.4643833  87.0821313  35.1168553  40.9523833  87.0451313
  34.1248553  40.4343833  86.2531313  34.4618553  40.5323833  86.9541313
  37.6248553  35.6353833  83.8171313  38.4708553  35.4453833  83.9151313
  37.2548553  34.8583833  83.6791313  37.6948553  35.4923833  83.8111313
  50.2418553  47.2193833  78.1441313  50.9358553  46.7523833  77.8961313
  49.7028553  46.6213833  78.4811313  50.2648553  47.0613833  78.1571313
  32.4458553  36.9733833  80.4721313  32.9348553  36.6813833  81.1331313
  32.5748553  36.3803833  79.8451313  32.5368553  36.8423833  80.4771313
  47.4808553  39.9953833  87.3231313  47.4738553  39.2193833  87.7211313
  46.6398553  40.2293833  87.3161313  47.3558553  39.9153833  87.3811313
  36.9708553  38.4073833  75.9581313  36.3608553  38.0023833  76.4321313
  36.5848553  38.5253833  75.1851313  36.8238553  38.3643833  75.9141313
  33.7898553  41.5163833  91.3601313  33.3688553  40.9983833  90.7991313
  33.4378553  42.3023833  91.2171313  33.6758553  41.5563833  91.2561313
  48.7368553  40.0663833  84.7601313  48.4508553  40.4673833  85.4801313
  49.5968553  40.0043833  84.8871313  48.8218553  40.1163833  84.8851313
  38.4258553  36.8683833  78.6681313  38.6978553  37.6943833  78.7351313
  37.5628553  36.9433833  78.5721313  38.3388553  37.0013833  78.6631313
  31.9058553  32.8383833  85.2041313  31.9498553  33.1823833  84.4031313
  32.6608553  33.0753833  85.5711313  32.0238553  32.9243833  85.1401313
  49.8678553  45.6993833  85.2891313  50.1578553  45.9563833  84.5081313
  50.5628553  45.7953833  85.8081313  50.0138553  45.7513833  85.2501313
  47.1588553  37.8783833  91.7411313  47.4778553  38.6643833  91.9441313
  46.7888553  37.6083833  92.4841313  47.1518553  37.9543833  91.8811313
  46.4728553  44.3023833  77.2711313  46.8068553  43.4963833  77.3061313
  45.7178553  44.2303833  77.7011313  46.4108553  44.1723833  77.3401313
  46.9548553  36.1363833  82.9301313  46.2098553  35.8133833  83.2481313
  46.9568553  36.9623833  83.2101313  46.8448553  36.2103833  83.0181313
  49.3948553  42.0963833  90.6821313  50.0228553  41.5473833  90.4261313
  49.3338553  42.6613833  90.0201313  49.4788553  42.0993833  90.5461313
  43.8468553  42.1773833  76.6741313  44.5308553  41.6633833  76.5051313
  43.4298553  42.2233833  75.9091313  43.8858553  42.1083833  76.5361313
  38.5288553  43.3273833  87.9781313  38.2308553  43.9193833  88.5451313
  38.5838553  43.7693833  87.2291313  38.4928553  43.4803833  87.9511313
  36.5078553  42.2773833  91.3761313  35.7018553  41.9873833  91.5431313
  36.4188553  43.1453833  91.3821313  36.3758553  42.3623833  91.4011313
  45.8668553  32.4663833  90.3911313  46.6108553  32.9183833  90.3281313
  45.3008553  32.9363833  89.9221313  45.8938553  32.6033833  90.3131313
  41.0448553  39.7503833  87.4691313  41.5208553  40.1243833  88.0971313
  40.2218553  39.8843833  87.7281313  40.9938553  39.8253833  87.6001313
  37.7548553  35.3533833  90.2101313  37.9158553  34.6093833  90.6371313
  37.7098553  35.1043833  89.3751313  37.7718553  35.2063833  90.1501313
  40.3088553  47.1433833  82.6971313  40.8548553  47.8223833  82.7511313
  39.9588553  47.2253833  81.9021313  40.3378553  47.2563833  82.5871313
  47.1518553  30.4463833  88.0611313  46.8718553  31.2713833  88.0171313
  47.8678553  30.4993833  88.5571313  47.2168553  30.5763833  88.1281313
  39.5068553  31.1613833  90.0901313  40.2118553  31.4813833  89.6881313
  39.7478553  30.3543833  90.3171313  39.6458553  31.0893833  90.0641313
  38.4918553  45.3713833  86.0861313  37.8678553  45.9533833  85.9041313
  38.7398553  45.0853833  85.3001313  38.4358553  45.4153833  85.9431313
  46.7098553  44.5553833  91.5791313  47.0558553  44.8253833  92.3331313
  47.0038553  45.1373833  90.9991313  46.8048553  44.6813833  91.6051313
  48.5728553  36.7013833  76.9181313  48.9508553  37.3783833  76.5181313
  47.7308553  36.9253833  76.9491313  48.5038553  36.8343833  76.8631313
  40.0858553  40.1473833  76.0011313  39.2808553  39.9703833  75.7161313
  40.0528553  40.9983833  76.1931313  39.9618553  40.2463833  75.9881313
  36.0158553  36.2143833  86.1511313  36.4558553  36.1113833  85.4051313
  36.5608553  35.9013833  86.7561313  36.1608553  36.1533833  86.1301313
  44.0318553  35.3163833  91.7431313  43.3838553  35.7863833  92.0911313
  44.5968553  35.2273833  92.4021313  44.0198553  35.3723833  91.8921313
  43.7198553  36.8533833  88.0411313  44.0218553  37.2733833  88.7441313
  43.7558553  36.0133833  88.2731313  43.7698553  36.7913833  88.1791313
  41.1448553  47.0203833  91.9661313  41.6228553  46.4203833  91.5501313
  40.7938553  46.5773833  92.6311313  41.1638553  46.8663833  92.0031313
  46.2678553  36.3003833  80.2931313  46.4748553  36.0993833  81.1171313
  47.0238553  36.5683833  79.9511313  46.4098553  36.3103833  80.3641313
  39.5628553  31.1993833  86.1981313  38.7368553  31.0503833  86.4351313
  39.5228553  31.2343833  85.3271313  39.4348553  31.1823833  86.1041313
  47.2898553  32.3833833  81.7671313  46.5758553  31.9123833  81.9381313
  47.1278553  32.7243833  80.9811313  47.1608553  32.3643833  81.6761313
  47.7328553  40.3273833  80.1471313  48.2088553  39.5983833  80.0991313
  46.9118553  40.0413833  80.0711313  47.6818553  40.1773833  80.1281313
  41.2038553  42.2393833  90.9861313  40.4088553  42.1753833  91.3371313
  41.2748553  43.0863833  90.7911313  41.0968553  42.3543833  91.0091313
  32.1278553  31.5973833  92.2331313  31.9878553  32.3923833  91.9021313
  31.3418553  31.3543833  92.5221313  31.9908553  31.6793833  92.2271313
  37.0338553  48.4463833  86.3031313  37.0448553  48.5053833  87.1731313
  36.6088553  47.6993833  86.1531313  36.9728553  48.3443833  86.4091313
  35.1918553  34.3413833  79.4581313  35.3178553  34.0123833  78.6601313
  34.3798553  34.0923833  79.6571313  35.0908553  34.2563833  79.3701313
  43.9488553  41.4943833  82.5021313  44.0248553  41.8353833  83.3011313
  44.1178553  40.6473833  82.6231313  43.9848553  41.4193833  82.6381313
  41.4708553  40.7683833  82.0671313  41.1728553  40.4533833  82.8241313
  42.1658553  41.2413833  82.3021313  41.5298553  40.7913833  82.2141313
  41.6928553  44.8863833  90.0941313  42.3798553  44.7723833  90.6191313
  41.8268553  45.6773833  89.7501313  41.8138553  44.9863833  90.1211313
  49.8688553  37.4953833  91.9051313  49.0138553  37.3733833  92.0311313
  50.0218553  37.1003833  91.1421313  49.7648553  37.4183833  91.8111313
  44.3818553  38.1603833  90.4811313  44.1268553  37.4413833  90.9031313
  45.2028553  38.2763833  90.7511313  44.4658553  38.0713833  90.5831313
  33.7978553  47.9443833  91.7451313  33.1438553  47.3753833  91.8431313
  33.4228553  48.7173833  91.8961313  33.6458553  47.9743833  91.7821313
  45.3998553  47.7243833  84.5971313  44.9488553  48.3673833  84.9761313
  46.1078553  47.6453833  85.1021313  45.4378553  47.8073833  84.7281313
  42.1008553  42.8143833  87.5271313  41.4068553  43.2163833  87.8701313
  42.7778553  43.2473833  87.8661313  42.0978553  42.9373833  87.6281313
  35.1688553  36.3523833  89.8741313  35.5438553  36.9713833  89.3871313
  35.8428553  35.8783833  90.1591313  35.3238553  36.3743833  89.8441313
  32.9438553  34.8003833  89.1491313  33.0208553  34.6313833  88.2961313
  33.6898553  35.2063833  89.3461313  33.0648553  34.8353833  89.0521313
  48.5028553  37.4403833  79.5891313  48.6058553  37.3823833  78.7251313
  49.2438553  37.1083833  79.9071313  48.6278553  37.3833833  79.5081313
  35.4978553  32.2103833  91.5601313  35.4168553  31.3663833  91.7661313
  35.1838553  32.2543833  90.7471313  35.4398553  32.0923833  91.4701313
  42.4228553  44.4053833  80.6961313  42.2178553  45.2383833  80.5371313
  41.6478553  44.0233833  80.8181313  42.2778553  44.4723833  80.6911313
  47.6048553  37.5863833  88.9451313  47.6028553  36.7233833  89.0691313
  47.6718553  37.9103833  89.7521313  47.6148553  37.5063833  89.0821313
  32.3408553  40.0263833  89.3731313  32.6608553  40.2453833  88.5921313
  32.2408553  39.1613833  89.3181313  32.3728553  39.9313833  89.2501313
  33.7968553  35.9623833  75.9911313  33.1248553  35.9763833  76.5471313
  33.8918553  35.1143833  75.8071313  33.7118553  35.8393833  76.0461313
  42.4778553  32.5763833  83.5811313  41.7778553  33.0943833  83.5251313
  42.5158553  32.1963833  82.7971313  42.3798553  32.5973833  83.4571313
  37.7848553  44.6673833  77.1051313  38.2258553  44.7473833  77.8531313
  36.9798553  44.4513833  77.3631313  37.7308553  44.6473833  77.2541313
  46.0758553  33.0923833  86.3811313  46.9308553  33.1913833  86.5261313
  45.7068553  33.6453833  86.9461313  46.1478553  33.1893833  86.4861313
  37.1038553  39.3183833  90.7581313  36.7078553  40.0923833  90.8331313
  36.6978553  38.9453833  90.0821313  36.9858553  39.3773833  90.6691313
  46.3798553  38.3723833  84.8721313  47.0458553  38.9133833  85.0321313
  46.0348553  38.6833833  84.1331313  46.4268553  38.4983833  84.7871313
  46.6928553  46.4383833  80.6791313  46.5188553  45.7843833  81.2291313
  47.4058553  46.1673833  80.2561313  46.7728553  46.3013833  80.6981313
  35.1138553  43.7373833  77.7061313  34.8698553  43.4303833  78.4861313
  35.0808553  43.0343833  77.1901313  35.0728553  43.5883833  77.7451313
  37.9328553  41.9823833  76.4491313  37.1148553  41.7143833  76.5891313
  37.9048553  42.8343833  76.6341313  37.8078553  42.0693833  76.4971313
  37.5328553  32.2953833  88.2081313  36.6688553  32.3793833  88.2881313
  37.7528553  31.7813833  88.8771313  37.4378553  32.2323833  88.3191313
  49.5508553  30.9303833  89.5371313  49.4988553  30.8863833  90.4071313
  50.2378553  30.4273833  89.3471313  49.6448553  30.8503833  89.6371313
  41.6358553  33.0433833  86.5821313  40.8988553  32.5893833  86.6951313
  42.2068553  32.6413833  87.1051313  41.6108553  32.9163833  86.6761313
  44.3678553  43.8913833  88.3701313  44.5738553  44.1923833  89.1621313
  44.3068553  44.6133833  87.8851313  44.3888553  44.0423833  88.4151313
  39.1388553  37.3723833  91.7861313  38.8168553  36.7963833  91.2161313
  38.7798553  38.1273833  91.5401313  39.0388553  37.3983833  91.6661313
  39.9348553  30.6243833  76.4131313  40.0128553  30.8713833  75.5801313
  39.1918553  31.0013833  76.6711313  39.8368553  30.7163833  76.3281313
  49.1798553  42.5303833  87.8281313  49.1478553  41.6683833  87.6931313
  48.4868553  42.8323833  87.3941313  49.0728553  42.4473833  87.7441313
  47.2848553  45.7903833  86.6251313  47.8118553  45.7073833  85.9341313
  46.8938553  45.0123833  86.6791313  47.3048553  45.6633833  86.5311313
  34.7528553  32.3783833  88.8561313  34.4098553  31.6113833  88.6221313
  34.0578553  32.9023833  88.9201313  34.5998553  32.3423833  88.8311313
  43.7988553  31.2343833  85.8331313  44.4688553  31.7783833  85.9601313
  43.2958553  31.6583833  85.2601313  43.8238553  31.3773833  85.7671313
  43.1578553  37.0423833  83.3261313  43.7088553  36.4353833  83.6261313
  42.7328553  37.3053833  84.0411313  43.1768553  36.9913833  83.4751313
  33.4058553  35.6923833  82.8121313  33.0378553  35.9943833  83.5431313
  33.9398553  35.0633833  83.0961313  33.4298553  35.6443833  82.9621313
  33.0938553  44.1003833  90.3231313  32.5198553  44.5163833  90.8321313
  33.8268553  44.5653833  90.4181313  33.1178553  44.2303833  90.4121313
  45.1278553  38.8733833  79.8881313  45.1958553  38.0233833  80.0691313
  44.3048553  38.9593833  79.6101313  45.0158553  38.7603833  79.8741313
  34.8798553  47.3673833  79.0981313  34.7348553  47.5233833  78.2521313
  35.7458553  47.4463833  79.1761313  34.9868553  47.4023833  78.9851313
  39.0468553  39.7643833  78.8261313  39.1468553  39.9033833  77.9711313
  39.8648553  39.7043833  79.1221313  39.1818553  39.7753833  78.7431313
  48.2068553  47.8283833  76.3061313  48.8438553  47.6943833  76.8871313
  47.8658553  47.0343833  76.1891313  48.2508553  47.6913833  76.3741313
  44.2818553  44.0933833  78.6281313  44.0308553  43.9653833  79.4541313
  43.9648553  43.3983833  78.2071313  44.1978553  43.9723833  78.6881313
  48.9258553  35.7513833  86.7481313  48.0928553  36.0013833  86.6761313
  48.8698553  34.9113833  86.9771313  48.7948553  35.6643833  86.7711313
  38.1858553  32.7393833  91.9421313  38.4198553  32.1633833  91.3291313
  37.3438553  32.5583833  92.0831313  38.0958553  32.6273833  91.8721313
  35.5668553  46.1823833  85.5751313  35.4878553  45.3723833  85.2591313
  35.1228553  46.6693833  85.0031313  35.4898553  46.1343833  85.4441313
  41.1678553  42.3013833  78.0581313  41.8848553  41.9543833  77.7021313
  41.1338553  43.1013833  77.7101313  41.2688553  42.3683833  77.9541313
  33.1388553  48.4263833  89.1561313  33.6318553  48.3703833  89.8741313
  33.3268553  47.6933833  88.7211313  33.2398553  48.3093833  89.1981313
  42.5768553  30.9423833  62.2968903  42.3318553  31.4303833  61.6168903
  43.4398553  30.8693833  62.1968903  42.6678553  31.0033833  62.1818903
  42.3858553  37.8583833  66.9678903  41.8618553  38.4543833  67.3308903
  42.7828553  37.4903833  67.6518903  42.3668553  37.8923833  67.1228903
  48.5298553  45.2993833  59.9388903  49.2308553  44.7803833  59.9348903
  47.9428553  44.8543833  59.4698903  48.5468553  45.1563833  59.8688903
  45.0568553  38.9253833  63.6438903  45.1368553  38.9293833  62.7748903
  44.4728553  38.2933833  63.7928903  44.9818553  38.8323833  63.5378903
  39.0458553  32.0293833  61.4518903  38.9758553  32.7063833  60.9058903
  39.7868553  31.6413833  61.2028903  39.1448553  32.0723833  61.3338903
  38.7688553  42.2583833  73.7458903  38.5328553  42.2553833  74.5858903
  38.0208553  42.1103833  73.3218903  38.6228553  42.2353833  73.8068903
  38.1488553  34.8643833  68.2278903  38.8268553  34.8823833  67.6788903
  38.1038553  34.0283833  68.4728903  38.2418553  34.7433833  68.1828903
  38.7508553  45.4503833  71.0088903  38.8888553  46.2103833  70.6018903
  39.5418553  45.0853833  71.0358903  38.8878553  45.5093833  70.9528903
  39.8458553  43.3353833  65.5138903  40.1938553  42.5363833  65.5438903
  40.5108553  43.8393833  65.2588903  39.9958553  43.2913833  65.4808903
  39.9028553  42.7843833  61.7248903  40.2338553  42.1403833  62.2108903
  40.1428553  42.5733833  60.9138903  39.9868553  42.6583833  61.6768903
  41.8708553  36.9153833  73.0638903  41.0228553  36.8163833  72.8858903
  41.8998553  37.6603833  73.5178903  41.7498553  37.0113833  73.1048903
  36.2388553  32.4483833  62.1698903  35.9428553  32.9493833  61.5198903
  37.1058553  32.5263833  62.1128903  36.3228553  32.5343833  62.0658903
  46.4288553  29.8753833  72.1778903  46.2708553  30.6443833  71.7958903
  45.6568553  29.6553833  72.5218903  46.2908553  29.9563833  72.1728903
  39.2178553  31.5903833  64.3928903  39.2908553  32.4503833  64.5218903
  39.1798553  31.5153833  63.5248903  39.2228553  31.7063833  64.2838903
  43.8908553  34.5163833  56.6918903  43.4408553  35.1973833  56.9988903
  44.0048553  34.0123833  57.3948903  43.8418553  34.5423833  56.8408903
  32.0968553  37.0153833  65.8938903  31.8408553  37.8463833  65.8188903
  31.4328553  36.6323833  66.3108903  31.9608553  37.0813833  65.9448903
  37.8468553  44.5693833  61.2738903  37.2678553  44.2943833  61.8658903
  38.4708553  43.9603833  61.2988903  37.8538553  44.4393833  61.3648903
  43.9898553  46.8573833  58.7958903  44.7168553  47.3293833  58.8978903
  44.2188553  46.0633833  59.0758903  44.1318553  46.8103833  58.8528903
  42.1578553  47.2493833  60.7858903  42.3718553  47.7763833  61.4478903
  42.9248553  47.0753833  60.4068903  42.3028553  47.3013833  60.8278903
  35.1258553  31.8323833  66.3848903  34.6048553  31.2043833  66.0768903
  35.7168553  31.3953833  66.8558903  35.1368553  31.6743833  66.4088903
  38.4318553  33.9653833  75.6828903  38.5488553  33.5113833  74.9468903
  38.7198553  34.7633833  75.4798903  38.4918553  34.0163833  75.5438903
  49.2848553  34.4893833  62.9868903  48.9388553  35.1673833  63.4128903
  48.6488553  33.8913833  63.0028903  49.1398553  34.5013833  63.0518903
  44.5968553  47.2593833  69.0908903  45.3408553  47.7153833  69.0808903
  44.4758553  47.0453833  68.2538903  44.6888553  47.2953833  68.9658903
  34.1648553  33.5623833  74.6668903  33.3868553  33.1723833  74.5948903
  34.6558553  33.1503833  74.0758903  34.1218553  33.4433833  74.5688903
  37.6008553  46.7343833  64.5208903  38.4448553  46.8383833  64.3258903
  37.3038553  47.5523833  64.5888903  37.6818553  46.8703833  64.5018903
  40.8138553  31.2053833  73.8348903  40.9918553  30.3963833  73.5598903
  40.6708553  31.6463833  73.0958903  40.8188553  31.1513833  73.6848903
  41.4078553  36.1313833  62.6078903  41.6948553  35.8993833  61.8178903
  42.1398553  36.2103833  63.0768903  41.5578553  36.1083833  62.5608903
  42.1298553  36.4703833  57.7288903  42.4108553  37.2583833  57.9778903
  41.3538553  36.6353833  57.3658903  42.0568553  36.6113833  57.7118903
  46.1708553  48.4443833  59.1958903  46.8358553  48.2963833  58.6508903
  46.5308553  48.3613833  59.9858903  46.3228553  48.4103833  59.2318903
  36.5988553  47.9533833  70.2608903  36.8908553  47.8863833  71.0808903
  35.9728553  47.3483833  70.2158903  36.5498553  47.8543833  70.3758903
  48.9598553  32.8123833  68.3558903  49.7168553  32.8843833  67.9278903
  49.0228553  32.0393833  68.7548903  49.0808553  32.7093833  68.3508903
  31.5128553  34.1103833  72.2528903  31.5088553  34.6973833  72.8988903
  32.1068553  34.4223833  71.6958903  31.5998553  34.2433833  72.2658903
  43.8508553  44.4443833  72.7948903  43.8168553  44.8263833  73.5788903
  44.7048553  44.4023833  72.6238903  43.9718553  44.4943833  72.8858903
  40.9888553  44.6413833  57.5448903  40.8078553  45.1863833  58.2018903
  41.7548553  44.9313833  57.2438903  41.0748553  44.7653833  57.5978903
  44.4958553  32.5373833  58.5988903  45.0358553  31.8553833  58.6748903
  44.5578553  32.9353833  59.3728903  44.5848553  32.4953833  58.7248903
  41.7538553  34.9133833  59.9128903  41.2458553  34.2513833  59.6588903
  41.8058553  35.4173833  59.2028903  41.6868553  34.8903833  59.7708903
  42.3028553  47.6083833  70.2928903  43.0708553  47.5283833  69.8868903
  41.7198553  47.4873833  69.6548903  42.3298553  47.5783833  70.1388903
  41.7538553  31.8543833  59.8038903  41.2988553  31.4523833  59.1778903
  42.5268553  32.0093833  59.4288903  41.8008553  31.8183833  59.6558903
  48.5798553  48.2113833  63.1938903  48.1248553  48.9283833  63.3948903
  47.9658553  47.6403833  62.9518903  48.4218553  48.2333833  63.1878903
  40.3518553  34.2213833  64.3258903  40.4258553  34.7893833  63.6678903
  40.4728553  34.7133833  65.0358903  40.3798553  34.3783833  64.3338903
  45.5768553  44.0563833  62.7378903  46.2778553  43.5743833  62.9268903
  44.9168553  43.4873833  62.7828903  45.5828553  43.9013833  62.7718903
  35.9528553  44.9663833  71.9498903  36.7938553  45.0293833  71.7278903
  35.9158553  45.3633833  72.7258903  36.0718553  45.0343833  72.0318903
  34.9598553  30.0443833  62.6738903  35.4958553  30.7323833  62.6638903
  34.9628553  29.7703833  61.8458903  35.0388553  30.1053833  62.5498903
  37.9158553  40.4773833  66.6988903  38.0878553  40.2673833  67.5278903
  37.2608553  39.9433833  66.4828903  37.8448553  40.3673833  66.7898903
  44.1438553  34.3913833  70.2138903  44.0488553  34.7103833  71.0198903
  43.5508553  33.7523833  70.1758903  44.0418553  34.3433833  70.3278903
  38.6658553  40.4153833  69.2888903  38.7188553  41.2623833  69.4908903
  38.3808553  40.0453833  70.0258903  38.6318553  40.4853833  69.4268903
  44.8428553  41.1103833  68.4188903  44.3288553  40.6983833  68.9898903
  44.7168553  41.9543833  68.5998903  44.7488553  41.1743833  68.5298903
  45.3998553  30.3353833  63.0498903  45.4488553  30.0173833  63.8608903
  45.7228553  29.6913833  62.5568903  45.4548553  30.1933833  63.0968903
  31.4868553  44.7863833  75.4998903  32.2428553  45.1353833  75.7578903
  31.6638553  43.9333833  75.4428903  31.6248553  44.7113833  75.5298903
  47.8638553  34.5713833  71.3578903  48.6358553  34.3463833  71.6948903
  47.3888553  34.7883833  72.0578903  47.9078553  34.5703833  71.5108903
  35.4078553  33.8543833  64.3278903  35.6798553  33.4243833  63.6198903
  35.2318553  33.2183833  64.8988903  35.4218553  33.6973833  64.3078903
  48.0958553  41.5493833  58.5458903  48.2148553  41.2623833  59.3608903
  48.9028553  41.5703833  58.2158903  48.2318553  41.5103833  58.6178903
  33.5488553  34.9563833  67.4098903  34.3918553  35.1763833  67.3668903
  33.1598553  35.5293833  66.8788903  33.6158553  35.0733833  67.3248903
  50.3298553  46.0583833  72.7998903  49.6478553  46.3683833  72.3528903
  49.9608553  45.6003833  73.4448903  50.1738553  46.0363833  72.8288903
  45.9908553  38.0863833  58.1308903  45.7708553  38.8173833  57.7088903
  45.5428553  38.1373833  58.8778903  45.8918553  38.2013833  58.1788903
  37.5998553  41.2883833  62.1118903  38.3128553  41.7833833  62.2018903
  37.8218553  40.7213833  61.4858903  37.7378553  41.2773833  62.0328903
  50.1778553  32.9473833  57.5838903  49.5158553  32.3793833  57.6068903
  49.9848553  33.4593833  56.9038903  50.0518553  32.9393833  57.4868903
  39.4028553  36.6413833  75.5278903  38.9188553  37.2183833  75.9698903
  39.3748553  36.9363833  74.7068903  39.3268553  36.7703833  75.4718903
  50.5008553  37.3253833  70.1398903  50.7158553  36.5253833  69.8638903
  49.6508553  37.3853833  69.9508903  50.4068553  37.2163833  70.0708903
  48.1798553  32.5053833  59.8628903  48.9258553  32.0983833  60.0618903
  48.4428553  33.2203833  59.4378903  48.3288553  32.5513833  59.8298903
  42.1228553  44.9913833  64.4388903  41.5998553  45.6253833  64.1458903
  42.4328553  44.6273833  63.7098903  42.0908553  45.0313833  64.2878903
  44.6338553  34.7933833  64.9358903  44.9778553  34.9453833  65.7228903
  44.1808553  34.0553833  65.0488903  44.6178553  34.7063833  65.0688903
  39.1098553  34.0133833  59.3928903  39.1078553  33.8963833  58.5278903
  38.9288553  34.8613833  59.4848903  39.0828553  34.1213833  59.2788903
  48.1638553  46.4403833  70.8898903  47.4928553  46.9543833  71.1078903
  48.2268553  46.5403833  70.0258903  48.0738553  46.5313833  70.7948903
  34.9778553  37.4483833  73.8868903  34.4418553  36.9423833  74.3548903
  34.9978553  37.0583833  73.1068903  34.9008553  37.3153833  73.8408903
  35.6298553  38.6753833  65.6258903  34.8488553  38.6163833  65.2428903
  35.7018553  37.9233833  66.0628903  35.5248553  38.5563833  65.6338903
  36.0598553  38.4123833  69.0938903  36.0848553  37.7373833  68.5428903
  35.4138553  38.9083833  68.7818903  35.9688553  38.3853833  68.9668903
  45.9548553  36.1253833  67.4898903  45.2928553  36.4533833  67.9528903
  46.1418553  36.7593833  66.9208903  45.8848553  36.2673833  67.4738903
  40.1598553  47.1893833  68.4858903  39.8828553  46.5483833  67.9628903
  39.9518553  47.9153833  68.0478903  40.0888553  47.2023833  68.3438903
  42.5998553  32.0313833  70.9188903  42.7488553  31.2063833  70.6758903
  42.9788553  32.0863833  71.7028903  42.6778553  31.9173833  70.9988903
  44.1478553  34.0943833  61.0008903  44.6378553  34.8113833  60.9238903
  43.3578553  34.3553833  60.7378903  44.1038553  34.2383833  60.9508903
  33.8588553  39.7673833  74.6528903  33.8218553  40.2683833  73.9388903
  34.1898553  39.0153833  74.3578903  33.9018553  39.7293833  74.5038903
  45.4618553  41.9723833  72.9108903  45.9458553  42.6903833  73.0088903
  45.8558553  41.5453833  72.2598903  45.5918553  42.0153833  72.8288903
  39.7578553  44.8173833  74.0878903  40.1118553  44.6393833  74.8648903
  39.3218553  44.0883833  73.8888903  39.7458553  44.6833833  74.1738903
  40.7298553  35.5643833  66.7258903  41.2098553  36.2633833  66.9338903
  41.1028553  34.9173833  67.1768903  40.8558553  35.5723833  66.8228903
  42.9188553  38.7333833  58.9998903  42.9108553  39.4553833  58.5098903
  42.2798553  38.8683833  59.5768903  42.8238553  38.8603833  59.0128903
  47.8908553  42.6033833  62.9808903  48.2468553  42.2533833  63.6958903
  47.8828553  41.9423833  62.4108903  47.9428553  42.4533833  63.0018903
  43.9358553  45.6693833  66.8248903  43.3328553  45.3733833  66.2678903
  44.4808553  46.1213833  66.3158903  43.9268553  45.6923833  66.6668903
  43.9488553  42.5203833  66.2248903  43.1518553  42.7443833  66.4988903
  44.2068553  41.9263833  66.8098903  43.8688553  42.4653833  66.3518903
  37.8408553  47.3323833  60.6728903  37.6938553  46.5563833  61.0438903
  38.5298553  47.1853833  60.1578903  37.9208553  47.1953833  60.6518903
  37.5118553  31.0753833  58.6608903  37.6088553  30.9683833  59.5218903
  36.8038553  31.5813833  58.5958903  37.4218553  31.1343833  58.7788903
  40.1328553  46.8483833  59.0748903  40.7548553  47.0113833  59.6648903
  40.1688553  47.5393833  58.5428903  40.2298553  46.9743833  59.0838903
  47.2088553  40.5183833  71.0708903  47.2638553  40.6433833  70.2088903
  47.9618553  40.8383833  71.3728903  47.3278553  40.5833833  70.9878903
  43.3998553  45.8673833  75.3478903  43.5638553  46.1503833  76.1568903
  43.6628553  46.5283833  74.8428903  43.4628553  46.0073833  75.3928903
  48.2408553  30.8163833  74.0578903  47.6038553  30.4163833  73.6158903
  48.2668553  30.3853833  74.8158903  48.1508553  30.6943833  74.1038903
  42.9398553  40.3243833  70.6708903  42.7848553  40.9343833  71.2748903
  43.4738553  39.7663833  71.0768903  42.9958553  40.3323833  70.8198903
  31.6308553  31.0433833  60.8718903  31.7598553  30.3353833  60.3798903
  31.2638553  30.7253833  61.5968903  31.5958553  30.8913833  60.9068903
  41.3238553  38.7243833  61.3288903  41.3828553  39.3743833  61.9078903
  41.1348553  38.0283833  61.8198903  41.3048553  38.7173833  61.4868903
  46.5498553  43.0533833  67.1978903  46.0708553  43.3513833  66.5318903
  46.1938553  42.2773833  67.3758903  46.4268553  42.9823833  67.1258903
  35.8198553  33.2413833  57.8408903  35.3088553  33.2943833  57.1348903
  36.6038553  33.4813833  57.5448903  35.8598553  33.2843833  57.6928903
  40.5468553  40.7713833  65.7598903  39.6998553  40.5773833  65.8408903
  40.8708553  40.6063833  66.5528903  40.4688553  40.7183833  65.8888903
  37.2988553  47.5013833  56.6458903  37.7378553  46.8043833  56.9338903
  37.5058553  48.1253833  57.2188903  37.3948553  47.4903833  56.7728903
  34.3948553  40.4643833  68.0758903  35.1168553  40.9523833  68.0388903
  34.1248553  40.4343833  67.2468903  34.4618553  40.5323833  67.9478903
  37.6248553  35.6353833  64.8108903  38.4708553  35.4453833  64.9088903
  37.2548553  34.8583833  64.6728903  37.6948553  35.4923833  64.8048903
  50.2418553  47.2193833  59.1378903  50.9358553  46.7523833  58.8898903
  49.7028553  46.6213833  59.4748903  50.2648553  47.0613833  59.1508903
  47.4808553  39.9953833  68.3168903  47.4738553  39.2193833  68.7148903
  46.6398553  40.2293833  68.3098903  47.3558553  39.9153833  68.3748903
  36.9708553  38.4073833  56.9518903  36.3608553  38.0023833  57.4258903
  36.5848553  38.5253833  56.1788903  36.8238553  38.3643833  56.9078903
  33.7898553  41.5163833  72.3538903  33.3688553  40.9983833  71.7928903
  33.4378553  42.3023833  72.2108903  33.6758553  41.5563833  72.2498903
  48.7368553  40.0663833  65.7538903  48.4508553  40.4673833  66.4738903
  49.5968553  40.0043833  65.8808903  48.8218553  40.1163833  65.8788903
  38.4258553  36.8683833  59.6618903  38.6978553  37.6943833  59.7288903
  37.5628553  36.9433833  59.5658903  38.3388553  37.0013833  59.6568903
  46.3988553  33.9903833  74.2938903  45.8738553  34.4493833  74.8178903
  46.0378553  33.1953833  74.2878903  46.2678553  33.9403833  74.3698903
  31.9058553  32.8383833  66.1978903  31.9498553  33.1823833  65.3968903
  32.6608553  33.0753833  66.5648903  32.0238553  32.9243833  66.1338903
  49.8678553  45.6993833  66.2828903  50.1578553  45.9563833  65.5018903
  50.5628553  45.7953833  66.8018903  50.0138553  45.7513833  66.2438903
  44.8908553  37.5593833  74.3698903  44.9638553  37.6633833  75.2328903
  44.2568553  38.1173833  74.1488903  44.8078553  37.6573833  74.4648903
  47.1588553  37.8783833  72.7348903  47.4778553  38.6643833  72.9378903
  46.7888553  37.6083833  73.4778903  47.1518553  37.9543833  72.8748903
  46.4728553  44.3023833  58.2648903  46.8068553  43.4963833  58.2998903
  45.7178553  44.2303833  58.6948903  46.4108553  44.1723833  58.3338903
  46.9548553  36.1363833  63.9238903  46.2098553  35.8133833  64.2418903
  46.9568553  36.9623833  64.2038903  46.8448553  36.2103833  64.0118903
  49.8568553  38.4203833  75.4698903  49.8048553  38.0793833  74.6688903
  50.5938553  38.8873833  75.4478903  49.9578553  38.4393833  75.3478903
  49.3948553  42.0963833  71.6758903  50.0228553  41.5473833  71.4198903
  49.3338553  42.6613833  71.0138903  49.4788553  42.0993833  71.5398903
  43.8468553  42.1773833  57.6678903  44.5308553  41.6633833  57.4988903
  43.4298553  42.2233833  56.9028903  43.8858553  42.1083833  57.5298903
  38.5288553  43.3273833  68.9718903  38.2308553  43.9193833  69.5388903
  38.5838553  43.7693833  68.2228903  38.4928553  43.4803833  68.9448903
  36.5078553  42.2773833  72.3698903  35.7018553  41.9873833  72.5368903
  36.4188553  43.1453833  72.3758903  36.3758553  42.3623833  72.3948903
  45.8668553  32.4663833  71.3848903  46.6108553  32.9183833  71.3218903
  45.3008553  32.9363833  70.9158903  45.8938553  32.6033833  71.3068903
  41.0448553  39.7503833  68.4628903  41.5208553  40.1243833  69.0908903
  40.2218553  39.8843833  68.7218903  40.9938553  39.8253833  68.5938903
  37.7548553  35.3533833  71.2038903  37.9158553  34.6093833  71.6308903
  37.7098553  35.1043833  70.3688903  37.7718553  35.2063833  71.1438903
  40.3088553  47.1433833  63.6908903  40.8548553  47.8223833  63.7448903
  39.9588553  47.2253833  62.8958903  40.3378553  47.2563833  63.5808903
  47.1518553  30.4463833  69.0548903  46.8718553  31.2713833  69.0108903
  47.8678553  30.4993833  69.5508903  47.2168553  30.5763833  69.1218903
  39.5068553  31.1613833  71.0838903  40.2118553  31.4813833  70.6818903
  39.7478553  30.3543833  71.3108903  39.6458553  31.0893833  71.0578903
  38.4918553  45.3713833  67.0798903  37.8678553  45.9533833  66.8978903
  38.7398553  45.0853833  66.2938903  38.4358553  45.4153833  66.9368903
  42.8008553  42.0053833  74.0688903  43.5578553  42.2913833  73.7428903
  42.2538553  42.0573833  73.3908903  42.8318553  42.0553833  73.9198903
  46.7098553  44.5553833  72.5728903  47.0558553  44.8253833  73.3268903
  47.0038553  45.1373833  71.9928903  46.8048553  44.6813833  72.5988903
  48.5728553  36.7013833  57.9118903  48.9508553  37.3783833  57.5118903
  47.7308553  36.9253833  57.9428903  48.5038553  36.8343833  57.8568903
  40.0858553  40.1473833  56.9948903  39.2808553  39.9703833  56.7098903
  40.0528553  40.9983833  57.1868903  39.9618553  40.2463833  56.9818903
  36.0158553  36.2143833  67.1448903  36.4558553  36.1113833  66.3988903
  36.5608553  35.9013833  67.7498903  36.1608553  36.1533833  67.1238903
  44.0318553  35.3163833  72.7368903  43.3838553  35.7863833  73.0848903
  44.5968553  35.2273833  73.3958903  44.0198553  35.3723833  72.8858903
  43.7198553  36.8533833  69.0348903  44.0218553  37.2733833  69.7378903
  43.7558553  36.0133833  69.2668903  43.7698553  36.7913833  69.1728903
  41.1448553  47.0203833  72.9598903  41.6228553  46.4203833  72.5438903
  40.7938553  46.5773833  73.6248903  41.1638553  46.8663833  72.9968903
  46.2678553  36.3003833  61.2868903  46.4748553  36.0993833  62.1108903
  47.0238553  36.5683833  60.9448903  46.4098553  36.3103833  61.3578903
  39.5628553  31.1993833  67.1918903  38.7368553  31.0503833  67.4288903
  39.5228553  31.2343833  66.3208903  39.4348553  31.1823833  67.0978903
  47.2898553  32.3833833  62.7608903  46.5758553  31.9123833  62.9318903
  47.1278553  32.7243833  61.9748903  47.1608553  32.3643833  62.6698903
  47.7328553  40.3273833  61.1408903  48.2088553  39.5983833  61.0928903
  46.9118553  40.0413833  61.0648903  47.6818553  40.1773833  61.1218903
  41.2038553  42.2393833  71.9798903  40.4088553  42.1753833  72.3308903
  41.2748553  43.0863833  71.7848903  41.0968553  42.3543833  72.0028903
  32.1278553  31.5973833  73.2268903  31.9878553  32.3923833  72.8958903
  31.3418553  31.3543833  73.5158903  31.9908553  31.6793833  73.2208903
  43.9488553  41.4943833  63.4958903  44.0248553  41.8353833  64.2948903
  44.1178553  40.6473833  63.6168903  43.9848553  41.4193833  63.6318903
  41.4708553  40.7683833  63.0608903  41.1728553  40.4533833  63.8178903
  42.1658553  41.2413833  63.2958903  41.5298553  40.7913833  63.2078903
  41.6928553  44.8863833  71.0878903  42.3798553  44.7723833  71.6128903
  41.8268553  45.6773833  70.7438903  41.8138553  44.9863833  71.1148903
  49.8688553  37.4953833  72.8988903  49.0138553  37.3733833  73.0248903
  50.0218553  37.1003833  72.1358903  49.7648553  37.4183833  72.8048903
  44.3818553  38.1603833  71.4748903  44.1268553  37.4413833  71.8968903
  45.2028553  38.2763833  71.7448903  44.4658553  38.0713833  71.5768903
  33.7978553  47.9443833  72.7388903  33.1438553  47.3753833  72.8368903
  33.4228553  48.7173833  72.8898903  33.6458553  47.9743833  72.7758903
  42.3158553  39.3503833  74.6618903  42.6388553  40.0363833  74.2298903
  41.6118553  39.6733833  75.0638903  42.2588553  39.4993833  74.6568903
  45.3998553  47.7243833  65.5908903  44.9488553  48.3673833  65.9698903
  46.1078553  47.6453833  66.0958903  45.4378553  47.8073833  65.7218903
  42.1008553  42.8143833  68.5208903  41.4068553  43.2163833  68.8638903
  42.7778553  43.2473833  68.8598903  42.0978553  42.9373833  68.6218903
  47.4778553  45.4073833  75.1008903  48.2538553  45.0173833  75.1838903
  47.0088553  45.0713833  75.7558903  47.5228553  45.3003833  75.2098903
  35.1688553  36.3523833  70.8678903  35.5438553  36.9713833  70.3808903
  35.8428553  35.8783833  71.1528903  35.3238553  36.3743833  70.8378903
  32.9438553  34.8003833  70.1428903  33.0208553  34.6313833  69.2898903
  33.6898553  35.2063833  70.3398903  33.0648553  34.8353833  70.0458903
  48.5028553  37.4403833  60.5828903  48.6058553  37.3823833  59.7188903
  49.2438553  37.1083833  60.9008903  48.6278553  37.3833833  60.5018903
  35.4978553  32.2103833  72.5538903  35.4168553  31.3663833  72.7598903
  35.1838553  32.2543833  71.7408903  35.4398553  32.0923833  72.4638903
  42.4228553  44.4053833  61.6898903  42.2178553  45.2383833  61.5308903
  41.6478553  44.0233833  61.8118903  42.2778553  44.4723833  61.6848903
  47.6048553  37.5863833  69.9388903  47.6028553  36.7233833  70.0628903
  47.6718553  37.9103833  70.7458903  47.6148553  37.5063833  70.0758903
  32.3408553  40.0263833  70.3668903  32.6608553  40.2453833  69.5858903
  32.2408553  39.1613833  70.3118903  32.3728553  39.9313833  70.2438903
  43.4838553  32.3863833  73.7208903  43.5758553  33.0983833  74.2148903
  42.8468553  31.9413833  74.1178903  43.4028553  32.4253833  73.8528903
  42.4778553  32.5763833  64.5748903  41.7778553  33.0943833  64.5188903
  42.5158553  32.1963833  63.7908903  42.3798553  32.5973833  64.4508903
  37.7848553  44.6673833  58.0988903  38.2258553  44.7473833  58.8468903
  36.9798553  44.4513833  58.3568903  37.7308553  44.6473833  58.2478903
  46.0758553  33.0923833  67.3748903  46.9308553  33.1913833  67.5198903
  45.7068553  33.6453833  67.9398903  46.1478553  33.1893833  67.4798903
  37.1038553  39.3183833  71.7518903  36.7078553  40.0923833  71.8268903
  36.6978553  38.9453833  71.0758903  36.9858553  39.3773833  71.6628903
  46.3798553  38.3723833  65.8658903  47.0458553  38.9133833  66.0258903
  46.0348553  38.6833833  65.1268903  46.4268553  38.4983833  65.7808903
  46.6928553  46.4383833  61.6728903  46.5188553  45.7843833  62.2228903
  47.4058553  46.1673833  61.2498903  46.7728553  46.3013833  61.6918903
  35.1138553  43.7373833  58.6998903  34.8698553  43.4303833  59.4798903
  35.0808553  43.0343833  58.1838903  35.0728553  43.5883833  58.7388903
  37.9328553  41.9823833  57.4428903  37.1148553  41.7143833  57.5828903
  37.9048553  42.8343833  57.6278903  37.8078553  42.0693833  57.4908903
  37.5328553  32.2953833  69.2018903  36.6688553  32.3793833  69.2818903
  37.7528553  31.7813833  69.8708903  37.4378553  32.2323833  69.3128903
  49.5508553  30.9303833  70.5308903  49.4988553  30.8863833  71.4008903
  50.2378553  30.4273833  70.3408903  49.6448553  30.8503833  70.6308903
  41.6358553  33.0433833  67.5758903  40.8988553  32.5893833  67.6888903
  42.2068553  32.6413833  68.0988903  41.6108553  32.9163833  67.6698903
  44.3678553  43.8913833  69.3638903  44.5738553  44.1923833  70.1558903
  44.3068553  44.6133833  68.8788903  44.3888553  44.0423833  69.4088903
  39.1388553  37.3723833  72.7798903  38.8168553  36.7963833  72.2098903
  38.7798553  38.1273833  72.5338903  39.0388553  37.3983833  72.6598903
  39.9348553  30.6243833  57.4068903  40.0128553  30.8713833  56.5738903
  39.1918553  31.0013833  57.6648903  39.8368553  30.7163833  57.3218903
  49.1798553  42.5303833  68.8218903  49.1478553  41.6683833  68.6868903
  48.4868553  42.8323833  68.3878903  49.0728553  42.4473833  68.7378903
  37.5738553  47.7283833  73.0278903  37.6148553  47.8543833  73.8908903
  38.2248553  47.1683833  72.8718903  37.6758553  47.6643833  73.1328903
  47.2848553  45.7903833  67.6188903  47.8118553  45.7073833  66.9278903
  46.8938553  45.0123833  67.6728903  47.3048553  45.6633833  67.5248903
  34.7528553  32.3783833  69.8498903  34.4098553  31.6113833  69.6158903
  34.0578553  32.9023833  69.9138903  34.5998553  32.3423833  69.8248903
  43.7988553  31.2343833  66.8268903  44.4688553  31.7783833  66.9538903
  43.2958553  31.6583833  66.2538903  43.8238553  31.3773833  66.7608903
  35.1668553  46.1113833  74.3878903  35.7618553  46.5423833  74.8598903
  34.8028553  46.7353833  73.8988903  35.2008553  46.2673833  74.3848903
  43.1578553  37.0423833  64.3198903  43.7088553  36.4353833  64.6198903
  42.7328553  37.3053833  65.0348903  43.1768553  36.9913833  64.4688903
  33.0938553  44.1003833  71.3168903  32.5198553  44.5163833  71.8258903
  33.8268553  44.5653833  71.4118903  33.1178553  44.2303833  71.4058903
  45.1278553  38.8733833  60.8818903  45.1958553  38.0233833  61.0628903
  44.3048553  38.9593833  60.6038903  45.0158553  38.7603833  60.8678903
  39.0468553  39.7643833  59.8198903  39.1468553  39.9033833  58.9648903
  39.8648553  39.7043833  60.1158903  39.1818553  39.7753833  59.7368903
  48.2068553  47.8283833  57.2998903  48.8438553  47.6943833  57.8808903
  47.8658553  47.0343833  57.1828903  48.2508553  47.6913833  57.3678903
  48.4018553  40.2463833  74.0328903  49.0358553  40.0763833  74.6068903
  48.8188553  40.6493833  73.3808903  48.5568553  40.2813833  74.0218903
  44.2818553  44.0933833  59.6218903  44.0308553  43.9653833  60.4478903
  43.9648553  43.3983833  59.2008903  44.1978553  43.9723833  59.6818903
  49.0268553  34.8103833  74.7708903  48.8308553  35.4543833  75.3258903
  48.3048553  34.3203833  74.7628903  48.8918553  34.8333833  74.8518903
  48.9258553  35.7513833  67.7418903  48.0928553  36.0013833  67.6698903
  48.8698553  34.9113833  67.9708903  48.7948553  35.6643833  67.7648903
  38.1858553  32.7393833  72.9358903  38.4198553  32.1633833  72.3228903
  37.3438553  32.5583833  73.0768903  38.0958553  32.6273833  72.8658903
  45.8128553  40.3573833  75.3878903  46.6838553  40.3213833  75.3518903
  45.5938553  40.7773833  74.6558903  45.9098553  40.4133833  75.2748903
  41.1678553  42.3013833  59.0518903  41.8848553  41.9543833  58.6958903
  41.1338553  43.1013833  58.7038903  41.2688553  42.3683833  58.9478903
  42.5768553  30.9423833  43.2906493  42.3318553  31.4303833  42.6106493
  43.4398553  30.8693833  43.1906493  42.6678553  31.0033833  43.1756493
  42.3858553  37.8583833  47.9616493  41.8618553  38.4543833  48.3246493
  42.7828553  37.4903833  48.6456493  42.3668553  37.8923833  48.1166493
  32.2548553  41.9983833  43.4176493  31.8138553  42.1163833  44.1606493
  31.9718553  41.2233833  43.1326493  32.1478553  41.9013833  43.4856493
  48.5298553  45.2993833  40.9326493  49.2308553  44.7803833  40.9286493
  47.9428553  44.8543833  40.4636493  48.5468553  45.1563833  40.8626493
  45.0568553  38.9253833  44.6376493  45.1368553  38.9293833  43.7686493
  44.4728553  38.2933833  44.7866493  44.9818553  38.8323833  44.5316493
  34.7638553  42.6943833  42.4966493  35.3718553  42.5243833  43.0996493
  34.0128553  42.5543833  42.9176493  34.7428553  42.6483833  42.6476493
  39.0458553  32.0293833  42.4456493  38.9758553  32.7063833  41.8996493
  39.7868553  31.6413833  42.1966493  39.1448553  32.0723833  42.3276493
  32.1948553  44.7333833  49.6726493  32.3238553  44.4533833  50.4886493
  31.5848553  44.1923833  49.3636493  32.1238553  44.6123833  49.7476493
  38.7688553  42.2583833  54.7396493  38.5328553  42.2553833  55.5796493
  38.0208553  42.1103833  54.3156493  38.6228553  42.2353833  54.8006493
  38.7508553  45.4503833  52.0026493  38.8888553  46.2103833  51.5956493
  39.5418553  45.0853833  52.0296493  38.8878553  45.5093833  51.9466493
  39.8458553  43.3353833  46.5076493  40.1938553  42.5363833  46.5376493
  40.5108553  43.8393833  46.2526493  39.9958553  43.2913833  46.4746493
  39.9028553  42.7843833  42.7186493  40.2338553  42.1403833  43.2046493
  40.1428553  42.5733833  41.9076493  39.9868553  42.6583833  42.6706493
  41.8708553  36.9153833  54.0576493  41.0228553  36.8163833  53.8796493
  41.8998553  37.6603833  54.5116493  41.7498553  37.0113833  54.0986493
  46.4288553  29.8753833  53.1716493  46.2708553  30.6443833  52.7896493
  45.6568553  29.6553833  53.5156493  46.2908553  29.9563833  53.1666493
  43.8908553  34.5163833  37.6856493  43.4408553  35.1973833  37.9926493
  44.0048553  34.0123833  38.3886493  43.8418553  34.5423833  37.8346493
  32.0068553  46.7253833  44.7876493  31.4148553  47.2833833  44.4746493
  32.4328553  46.4563833  44.0756493  31.9828553  46.7673833  44.6366493
  37.8468553  44.5693833  42.2676493  37.2678553  44.2943833  42.8596493
  38.4708553  43.9603833  42.2926493  37.8538553  44.4393833  42.3586493
  43.9898553  46.8573833  39.7896493  44.7168553  47.3293833  39.8916493
  44.2188553  46.0633833  40.0696493  44.1318553  46.8103833  39.8466493
  42.1578553  47.2493833  41.7796493  42.3718553  47.7763833  42.4416493
  42.9248553  47.0753833  41.4006493  42.3028553  47.3013833  41.8216493
  38.4318553  33.9653833  56.6766493  38.5488553  33.5113833  55.9406493
  38.7198553  34.7633833  56.4736493  38.4918553  34.0163833  56.5376493
  33.5518553  45.3953833  42.7186493  34.2078553  44.8203833  42.7336493
  33.9408553  46.1443833  42.4976493  33.7068553  45.4203833  42.6886493
  49.2848553  34.4893833  43.9806493  48.9388553  35.1673833  44.4066493
  48.6488553  33.8913833  43.9966493  49.1398553  34.5013833  44.0456493
  44.5968553  47.2593833  50.0846493  45.3408553  47.7153833  50.0746493
  44.4758553  47.0453833  49.2476493  44.6888553  47.2953833  49.9596493
  34.3698553  43.8823833  46.2186493  34.7928553  43.5263833  45.5446493
  34.6938553  43.4603833  46.9106493  34.4798553  43.7673833  46.2216493
  37.6008553  46.7343833  45.5146493  38.4448553  46.8383833  45.3196493
  37.3038553  47.5523833  45.5826493  37.6818553  46.8703833  45.4956493
  40.8138553  31.2053833  54.8286493  40.9918553  30.3963833  54.5536493
  40.6708553  31.6463833  54.0896493  40.8188553  31.1513833  54.6786493
  41.4078553  36.1313833  43.6016493  41.6948553  35.8993833  42.8116493
  42.1398553  36.2103833  44.0706493  41.5578553  36.1083833  43.5546493
  42.1298553  36.4703833  38.7226493  42.4108553  37.2583833  38.9716493
  41.3538553  36.6353833  38.3596493  42.0568553  36.6113833  38.7056493
  46.1708553  48.4443833  40.1896493  46.8358553  48.2963833  39.6446493
  46.5308553  48.3613833  40.9796493  46.3228553  48.4103833  40.2256493
  36.5988553  47.9533833  51.2546493  36.8908553  47.8863833  52.0746493
  35.9728553  47.3483833  51.2096493  36.5498553  47.8543833  51.3696493
  48.9598553  32.8123833  49.3496493  49.7168553  32.8843833  48.9216493
  49.0228553  32.0393833  49.7486493  49.0808553  32.7093833  49.3446493
  43.8508553  44.4443833  53.7886493  43.8168553  44.8263833  54.5726493
  44.7048553  44.4023833  53.6176493  43.9718553  44.4943833  53.8796493
  40.9888553  44.6413833  38.5386493  40.8078553  45.1863833  39.1956493
  41.7548553  44.9313833  38.2376493  41.0748553  44.7653833  38.5916493
  44.4958553  32.5373833  39.5926493  45.0358553  31.8553833  39.6686493
  44.5578553  32.9353833  40.3666493  44.5848553  32.4953833  39.7186493
  34.5918553  46.1153833  50.3766493  33.8938553  45.6073833  50.5026493
  34.8518553  45.9103833  49.5686493  34.5268553  46.0103833  50.2756493
  41.7538553  34.9133833  40.9066493  41.2458553  34.2513833  40.6526493
  41.8058553  35.4173833  40.1966493  41.6868553  34.8903833  40.7646493
  42.3028553  47.6083833  51.2866493  43.0708553  47.5283833  50.8806493
  41.7198553  47.4873833  50.6486493  42.3298553  47.5783833  51.1326493
  41.7538553  31.8543833  40.7976493  41.2988553  31.4523833  40.1716493
  42.5268553  32.0093833  40.4226493  41.8008553  31.8183833  40.6496493
  48.5798553  48.2113833  44.1876493  48.1248553  48.9283833  44.3886493
  47.9658553  47.6403833  43.9456493  48.4218553  48.2333833  44.1816493
  40.3518553  34.2213833  45.3196493  40.4258553  34.7893833  44.6616493
  40.4728553  34.7133833  46.0296493  40.3798553  34.3783833  45.3276493
  45.5768553  44.0563833  43.7316493  46.2778553  43.5743833  43.9206493
  44.9168553  43.4873833  43.7766493  45.5828553  43.9013833  43.7656493
  35.9528553  44.9663833  52.9436493  36.7938553  45.0293833  52.7216493
  35.9158553  45.3633833  53.7196493  36.0718553  45.0343833  53.0256493
  37.9158553  40.4773833  47.6926493  38.0878553  40.2673833  48.5216493
  37.2608553  39.9433833  47.4766493  37.8448553  40.3673833  47.7836493
  44.1438553  34.3913833  51.2076493  44.0488553  34.7103833  52.0136493
  43.5508553  33.7523833  51.1696493  44.0418553  34.3433833  51.3216493
  38.6658553  40.4153833  50.2826493  38.7188553  41.2623833  50.4846493
  38.3808553  40.0453833  51.0196493  38.6318553  40.4853833  50.4206493
  44.8428553  41.1103833  49.4126493  44.3288553  40.6983833  49.9836493
  44.7168553  41.9543833  49.5936493  44.7488553  41.1743833  49.5236493
  45.3998553  30.3353833  44.0436493  45.4488553  30.0173833  44.8546493
  45.7228553  29.6913833  43.5506493  45.4548553  30.1933833  44.0906493
  47.8638553  34.5713833  52.3516493  48.6358553  34.3463833  52.6886493
  47.3888553  34.7883833  53.0516493  47.9078553  34.5703833  52.5046493
  48.0958553  41.5493833  39.5396493  48.2148553  41.2623833  40.3546493
  48.9028553  41.5703833  39.2096493  48.2318553  41.5103833  39.6116493
  35.2318553  41.2813833  44.8706493  36.0828553  41.2013833  44.6976493
  34.8748553  40.5993833  44.4586493  35.3048553  41.1683833  44.7836493
  33.9988553  48.0063833  46.1076493  33.3258553  47.5083833  45.8626493
  34.4018553  48.1913833  45.3566493  33.9588553  47.9603833  45.9606493
  50.3298553  46.0583833  53.7936493  49.6478553  46.3683833  53.3466493
  49.9608553  45.6003833  54.4386493  50.1738553  46.0363833  53.8226493
  45.9908553  38.0863833  39.1246493  45.7708553  38.8173833  38.7026493
  45.5428553  38.1373833  39.8716493  45.8918553  38.2013833  39.1726493
  37.5998553  41.2883833  43.1056493  38.3128553  41.7833833  43.1956493
  37.8218553  40.7213833  42.4796493  37.7378553  41.2773833  43.0266493
  50.1778553  32.9473833  38.5776493  49.5158553  32.3793833  38.6006493
  49.9848553  33.4593833  37.8976493  50.0518553  32.9393833  38.4806493
  31.7558553  42.9313833  46.4256493  31.0888553  43.4193833  46.7016493
  32.4358553  43.4763833  46.4546493  31.7578553  43.0833833  46.4706493
  39.4028553  36.6413833  56.5216493  38.9188553  37.2183833  56.9636493
  39.3748553  36.9363833  55.7006493  39.3268553  36.7703833  56.4656493
  50.5008553  37.3253833  51.1336493  50.7158553  36.5253833  50.8576493
  49.6508553  37.3853833  50.9446493  50.4068553  37.2163833  51.0646493
  48.1798553  32.5053833  40.8566493  48.9258553  32.0983833  41.0556493
  48.4428553  33.2203833  40.4316493  48.3288553  32.5513833  40.8236493
  42.1228553  44.9913833  45.4326493  41.5998553  45.6253833  45.1396493
  42.4328553  44.6273833  44.7036493  42.0908553  45.0313833  45.2816493
  31.9938553  43.7793833  41.1036493  32.5458553  44.3483833  41.4676493
  31.7618553  43.2643833  41.7686493  32.0408553  43.7873833  41.2556493
  36.1978553  42.7793833  48.1926493  36.6648553  43.0683833  48.8706493
  36.7698553  42.3013833  47.7386493  36.3518553  42.7513833  48.2256493
  44.6338553  34.7933833  45.9296493  44.9778553  34.9453833  46.7166493
  44.1808553  34.0553833  46.0426493  44.6178553  34.7063833  46.0626493
  48.1638553  46.4403833  51.8836493  47.4928553  46.9543833  52.1016493
  48.2268553  46.5403833  51.0196493  48.0738553  46.5313833  51.7886493
  36.8478553  43.9653833  45.0186493  36.9738553  44.8083833  45.2056493
  37.5158553  43.5663833  45.4146493  36.9658553  44.0313833  45.1046493
  36.0598553  38.4123833  50.0876493  36.0848553  37.7373833  49.5366493
  35.4138553  38.9083833  49.7756493  35.9688553  38.3853833  49.9606493
  45.9548553  36.1253833  48.4836493  45.2928553  36.4533833  48.9466493
  46.1418553  36.7593833  47.9146493  45.8848553  36.2673833  48.4676493
  40.1598553  47.1893833  49.4796493  39.8828553  46.5483833  48.9566493
  39.9518553  47.9153833  49.0416493  40.0888553  47.2023833  49.3376493
  42.5998553  32.0313833  51.9126493  42.7488553  31.2063833  51.6696493
  42.9788553  32.0863833  52.6966493  42.6778553  31.9173833  51.9926493
  44.1478553  34.0943833  41.9946493  44.6378553  34.8113833  41.9176493
  43.3578553  34.3553833  41.7316493  44.1038553  34.2383833  41.9446493
  45.4618553  41.9723833  53.9046493  45.9458553  42.6903833  54.0026493
  45.8558553  41.5453833  53.2536493  45.5918553  42.0153833  53.8226493
  39.7578553  44.8173833  55.0816493  40.1118553  44.6393833  55.8586493
  39.3218553  44.0883833  54.8826493  39.7458553  44.6833833  55.1676493
  42.9188553  38.7333833  39.9936493  42.9108553  39.4553833  39.5036493
  42.2798553  38.8683833  40.5706493  42.8238553  38.8603833  40.0066493
  47.8908553  42.6033833  43.9746493  48.2468553  42.2533833  44.6896493
  47.8828553  41.9423833  43.4046493  47.9428553  42.4533833  43.9956493
  43.9358553  45.6693833  47.8186493  43.3328553  45.3733833  47.2616493
  44.4808553  46.1213833  47.3096493  43.9268553  45.6923833  47.6606493
  43.9488553  42.5203833  47.2186493  43.1518553  42.7443833  47.4926493
  44.2068553  41.9263833  47.8036493  43.8688553  42.4653833  47.3456493
  37.8408553  47.3323833  41.6666493  37.6938553  46.5563833  42.0376493
  38.5298553  47.1853833  41.1516493  37.9208553  47.1953833  41.6456493
  40.1328553  46.8483833  40.0686493  40.7548553  47.0113833  40.6586493
  40.1688553  47.5393833  39.5366493  40.2298553  46.9743833  40.0776493
  47.2088553  40.5183833  52.0646493  47.2638553  40.6433833  51.2026493
  47.9618553  40.8383833  52.3666493  47.3278553  40.5833833  51.9816493
  43.3998553  45.8673833  56.3416493  43.5638553  46.1503833  57.1506493
  43.6628553  46.5283833  55.8366493  43.4628553  46.0073833  56.3866493
  42.9398553  40.3243833  51.6646493  42.7848553  40.9343833  52.2686493
  43.4738553  39.7663833  52.0706493  42.9958553  40.3323833  51.8136493
  41.3238553  38.7243833  42.3226493  41.3828553  39.3743833  42.9016493
  41.1348553  38.0283833  42.8136493  41.3048553  38.7173833  42.4806493
  46.5498553  43.0533833  48.1916493  46.0708553  43.3513833  47.5256493
  46.1938553  42.2773833  48.3696493  46.4268553  42.9823833  48.1196493
  40.5468553  40.7713833  46.7536493  39.6998553  40.5773833  46.8346493
  40.8708553  40.6063833  47.5466493  40.4688553  40.7183833  46.8826493
  37.2988553  47.5013833  37.6396493  37.7378553  46.8043833  37.9276493
  37.5058553  48.1253833  38.2126493  37.3948553  47.4903833  37.7666493
  50.2418553  47.2193833  40.1316493  50.9358553  46.7523833  39.8836493
  49.7028553  46.6213833  40.4686493  50.2648553  47.0613833  40.1446493
  47.4808553  39.9953833  49.3106493  47.4738553  39.2193833  49.7086493
  46.6398553  40.2293833  49.3036493  47.3558553  39.9153833  49.3686493
  48.7368553  40.0663833  46.7476493  48.4508553  40.4673833  47.4676493
  49.5968553  40.0043833  46.8746493  48.8218553  40.1163833  46.8726493
  46.3988553  33.9903833  55.2876493  45.8738553  34.4493833  55.8116493
  46.0378553  33.1953833  55.2816493  46.2678553  33.9403833  55.3636493
  49.8678553  45.6993833  47.2766493  50.1578553  45.9563833  46.4956493
  50.5628553  45.7953833  47.7956493  50.0138553  45.7513833  47.2376493
  44.8908553  37.5593833  55.3636493  44.9638553  37.6633833  56.2266493
  44.2568553  38.1173833  55.1426493  44.8078553  37.6573833  55.4586493
  47.1588553  37.8783833  53.7286493  47.4778553  38.6643833  53.9316493
  46.7888553  37.6083833  54.4716493  47.1518553  37.9543833  53.8686493
  46.4728553  44.3023833  39.2586493  46.8068553  43.4963833  39.2936493
  45.7178553  44.2303833  39.6886493  46.4108553  44.1723833  39.3276493
  46.9548553  36.1363833  44.9176493  46.2098553  35.8133833  45.2356493
  46.9568553  36.9623833  45.1976493  46.8448553  36.2103833  45.0056493
  49.8568553  38.4203833  56.4636493  49.8048553  38.0793833  55.6626493
  50.5938553  38.8873833  56.4416493  49.9578553  38.4393833  56.3416493
  49.3948553  42.0963833  52.6696493  50.0228553  41.5473833  52.4136493
  49.3338553  42.6613833  52.0076493  49.4788553  42.0993833  52.5336493
  43.8468553  42.1773833  38.6616493  44.5308553  41.6633833  38.4926493
  43.4298553  42.2233833  37.8966493  43.8858553  42.1083833  38.5236493
  38.5288553  43.3273833  49.9656493  38.2308553  43.9193833  50.5326493
  38.5838553  43.7693833  49.2166493  38.4928553  43.4803833  49.9386493
  45.8668553  32.4663833  52.3786493  46.6108553  32.9183833  52.3156493
  45.3008553  32.9363833  51.9096493  45.8938553  32.6033833  52.3006493
  41.0448553  39.7503833  49.4566493  41.5208553  40.1243833  50.0846493
  40.2218553  39.8843833  49.7156493  40.9938553  39.8253833  49.5876493
  40.3088553  47.1433833  44.6846493  40.8548553  47.8223833  44.7386493
  39.9588553  47.2253833  43.8896493  40.3378553  47.2563833  44.5746493
  47.1518553  30.4463833  50.0486493  46.8718553  31.2713833  50.0046493
  47.8678553  30.4993833  50.5446493  47.2168553  30.5763833  50.1156493
  38.4918553  45.3713833  48.0736493  37.8678553  45.9533833  47.8916493
  38.7398553  45.0853833  47.2876493  38.4358553  45.4153833  47.9306493
  42.8008553  42.0053833  55.0626493  43.5578553  42.2913833  54.7366493
  42.2538553  42.0573833  54.3846493  42.8318553  42.0553833  54.9136493
  46.7098553  44.5553833  53.5666493  47.0558553  44.8253833  54.3206493
  47.0038553  45.1373833  52.9866493  46.8048553  44.6813833  53.5926493
  48.5728553  36.7013833  38.9056493  48.9508553  37.3783833  38.5056493
  47.7308553  36.9253833  38.9366493  48.5038553  36.8343833  38.8506493
  40.0858553  40.1473833  37.9886493  39.2808553  39.9703833  37.7036493
  40.0528553  40.9983833  38.1806493  39.9618553  40.2463833  37.9756493
  44.0318553  35.3163833  53.7306493  43.3838553  35.7863833  54.0786493
  44.5968553  35.2273833  54.3896493  44.0198553  35.3723833  53.8796493
  43.7198553  36.8533833  50.0286493  44.0218553  37.2733833  50.7316493
  43.7558553  36.0133833  50.2606493  43.7698553  36.7913833  50.1666493
  41.1448553  47.0203833  53.9536493  41.6228553  46.4203833  53.5376493
  40.7938553  46.5773833  54.6186493  41.1638553  46.8663833  53.9906493
  46.2678553  36.3003833  42.2806493  46.4748553  36.0993833  43.1046493
  47.0238553  36.5683833  41.9386493  46.4098553  36.3103833  42.3516493
  47.2898553  32.3833833  43.7546493  46.5758553  31.9123833  43.9256493
  47.1278553  32.7243833  42.9686493  47.1608553  32.3643833  43.6636493
  47.7328553  40.3273833  42.1346493  48.2088553  39.5983833  42.0866493
  46.9118553  40.0413833  42.0586493  47.6818553  40.1773833  42.1156493
  41.2038553  42.2393833  52.9736493  40.4088553  42.1753833  53.3246493
  41.2748553  43.0863833  52.7786493  41.0968553  42.3543833  52.9966493
  32.1278553  31.5973833  54.2206493  31.9878553  32.3923833  53.8896493
  31.3418553  31.3543833  54.5096493  31.9908553  31.6793833  54.2146493
  37.0338553  48.4463833  48.2906493  37.0448553  48.5053833  49.1606493
  36.6088553  47.6993833  48.1406493  36.9728553  48.3443833  48.3966493
  43.9488553  41.4943833  44.4896493  44.0248553  41.8353833  45.2886493
  44.1178553  40.6473833  44.6106493  43.9848553  41.4193833  44.6256493
  41.4708553  40.7683833  44.0546493  41.1728553  40.4533833  44.8116493
  42.1658553  41.2413833  44.2896493  41.5298553  40.7913833  44.2016493
  41.6928553  44.8863833  52.0816493  42.3798553  44.7723833  52.6066493
  41.8268553  45.6773833  51.7376493  41.8138553  44.9863833  52.1086493
  49.8688553  37.4953833  53.8926493  49.0138553  37.3733833  54.0186493
  50.0218553  37.1003833  53.1296493  49.7648553  37.4183833  53.7986493
  44.3818553  38.1603833  52.4686493  44.1268553  37.4413833  52.8906493
  45.2028553  38.2763833  52.7386493  44.4658553  38.0713833  52.5706493
  33.7978553  47.9443833  53.7326493  33.1438553  47.3753833  53.8306493
  33.4228553  48.7173833  53.8836493  33.6458553  47.9743833  53.7696493
  42.3158553  39.3503833  55.6556493  42.6388553  40.0363833  55.2236493
  41.6118553  39.6733833  56.0576493  42.2588553  39.4993833  55.6506493
  45.3998553  47.7243833  46.5846493  44.9488553  48.3673833  46.9636493
  46.1078553  47.6453833  47.0896493  45.4378553  47.8073833  46.7156493
  42.1008553  42.8143833  49.5146493  41.4068553  43.2163833  49.8576493
  42.7778553  43.2473833  49.8536493  42.0978553  42.9373833  49.6156493
  47.4778553  45.4073833  56.0946493  48.2538553  45.0173833  56.1776493
  47.0088553  45.0713833  56.7496493  47.5228553  45.3003833  56.2036493
  35.1688553  36.3523833  51.8616493  35.5438553  36.9713833  51.3746493
  35.8428553  35.8783833  52.1466493  35.3238553  36.3743833  51.8316493
  48.5028553  37.4403833  41.5766493  48.6058553  37.3823833  40.7126493
  49.2438553  37.1083833  41.8946493  48.6278553  37.3833833  41.4956493
  35.4978553  32.2103833  53.5476493  35.4168553  31.3663833  53.7536493
  35.1838553  32.2543833  52.7346493  35.4398553  32.0923833  53.4576493
  42.4228553  44.4053833  42.6836493  42.2178553  45.2383833  42.5246493
  41.6478553  44.0233833  42.8056493  42.2778553  44.4723833  42.6786493
  47.6048553  37.5863833  50.9326493  47.6028553  36.7233833  51.0566493
  47.6718553  37.9103833  51.7396493  47.6148553  37.5063833  51.0696493
  43.4838553  32.3863833  54.7146493  43.5758553  33.0983833  55.2086493
  42.8468553  31.9413833  55.1116493  43.4028553  32.4253833  54.8466493
  42.4778553  32.5763833  45.5686493  41.7778553  33.0943833  45.5126493
  42.5158553  32.1963833  44.7846493  42.3798553  32.5973833  45.4446493
  37.1038553  39.3183833  52.7456493  36.7078553  40.0923833  52.8206493
  36.6978553  38.9453833  52.0696493  36.9858553  39.3773833  52.6566493
  46.3798553  38.3723833  46.8596493  47.0458553  38.9133833  47.0196493
  46.0348553  38.6833833  46.1206493  46.4268553  38.4983833  46.7746493
  46.6928553  46.4383833  42.6666493  46.5188553  45.7843833  43.2166493
  47.4058553  46.1673833  42.2436493  46.7728553  46.3013833  42.6856493
  49.5508553  30.9303833  51.5246493  49.4988553  30.8863833  52.3946493
  50.2378553  30.4273833  51.3346493  49.6448553  30.8503833  51.6246493
  44.3678553  43.8913833  50.3576493  44.5738553  44.1923833  51.1496493
  44.3068553  44.6133833  49.8726493  44.3888553  44.0423833  50.4026493
  43.9018553  48.1053833  54.6036493  43.1488553  48.0873833  54.1626493
  44.0698553  48.9573833  54.6876493  43.8158553  48.2283833  54.5506493
  39.1388553  37.3723833  53.7736493  38.8168553  36.7963833  53.2036493
  38.7798553  38.1273833  53.5276493  39.0388553  37.3983833  53.6536493
  39.9348553  30.6243833  38.4006493  40.0128553  30.8713833  37.5676493
  39.1918553  31.0013833  38.6586493  39.8368553  30.7163833  38.3156493
  49.1798553  42.5303833  49.8156493  49.1478553  41.6683833  49.6806493
  48.4868553  42.8323833  49.3816493  49.0728553  42.4473833  49.7316493
  37.5738553  47.7283833  54.0216493  37.6148553  47.8543833  54.8846493
  38.2248553  47.1683833  53.8656493  37.6758553  47.6643833  54.1266493
  47.2848553  45.7903833  48.6126493  47.8118553  45.7073833  47.9216493
  46.8938553  45.0123833  48.6666493  47.3048553  45.6633833  48.5186493
  43.7988553  31.2343833  47.8206493  44.4688553  31.7783833  47.9476493
  43.2958553  31.6583833  47.2476493  43.8238553  31.3773833  47.7546493
  35.1668553  46.1113833  55.3816493  35.7618553  46.5423833  55.8536493
  34.8028553  46.7353833  54.8926493  35.2008553  46.2673833  55.3786493
  43.1578553  37.0423833  45.3136493  43.7088553  36.4353833  45.6136493
  42.7328553  37.3053833  46.0286493  43.1768553  36.9913833  45.4626493
  45.1278553  38.8733833  41.8756493  45.1958553  38.0233833  42.0566493
  44.3048553  38.9593833  41.5976493  45.0158553  38.7603833  41.8616493
  34.8798553  47.3673833  41.0856493  34.7348553  47.5233833  40.2396493
  35.7458553  47.4463833  41.1636493  34.9868553  47.4023833  40.9726493
  39.0468553  39.7643833  40.8136493  39.1468553  39.9033833  39.9586493
  39.8648553  39.7043833  41.1096493  39.1818553  39.7753833  40.7306493
  48.2068553  47.8283833  38.2936493  48.8438553  47.6943833  38.8746493
  47.8658553  47.0343833  38.1766493  48.2508553  47.6913833  38.3616493
  48.4018553  40.2463833  55.0266493  49.0358553  40.0763833  55.6006493
  48.8188553  40.6493833  54.3746493  48.5568553  40.2813833  55.0156493
  44.2818553  44.0933833  40.6156493  44.0308553  43.9653833  41.4416493
  43.9648553  43.3983833  40.1946493  44.1978553  43.9723833  40.6756493
  49.0268553  34.8103833  55.7646493  48.8308553  35.4543833  56.3196493
  48.3048553  34.3203833  55.7566493  48.8918553  34.8333833  55.8456493
  48.9258553  35.7513833  48.7356493  48.0928553  36.0013833  48.6636493
  48.8698553  34.9113833  48.9646493  48.7948553  35.6643833  48.7586493
  38.1858553  32.7393833  53.9296493  38.4198553  32.1633833  53.3166493
  37.3438553  32.5583833  54.0706493  38.0958553  32.6273833  53.8596493
  45.8128553  40.3573833  56.3816493  46.6838553  40.3213833  56.3456493
  45.5938553  40.7773833  55.6496493  45.9098553  40.4133833  56.2686493
  35.5668553  46.1823833  47.5626493  35.4878553  45.3723833  47.2466493
  35.1228553  46.6693833  46.9906493  35.4898553  46.1343833  47.4316493
  41.1678553  42.3013833  40.0456493  41.8848553  41.9543833  39.6896493
  41.1338553  43.1013833  39.6976493  41.2688553  42.3683833  39.9416493
  33.1388553  48.4263833  51.1436493  33.6318553  48.3703833  51.8616493
  33.3268553  47.6933833  50.7086493  33.2398553  48.3093833  51.1856493
  42.5768553  30.9423833  24.2844083  42.3318553  31.4303833  23.6044083
  43.4398553  30.8693833  24.1844083  42.6678553  31.0033833  24.1694083
  42.3858553  37.8583833  28.9554083  41.8618553  38.4543833  29.3184083
  42.7828553  37.4903833  29.6394083  42.3668553  37.8923833  29.1104083
  48.5298553  45.2993833  21.9264083  49.2308553  44.7803833  21.9224083
  47.9428553  44.8543833  21.4574083  48.5468553  45.1563833  21.8564083
  35.1368553  41.0533833  19.5904083  34.7448553  40.6823833  18.9044083
  35.0568553  40.4553833  20.2194083  35.0668553  40.9103833  19.5814083
  45.0568553  38.9253833  25.6314083  45.1368553  38.9293833  24.7624083
  44.4728553  38.2933833  25.7804083  44.9818553  38.8323833  25.5254083
  39.0458553  32.0293833  23.4394083  38.9758553  32.7063833  22.8934083
  39.7868553  31.6413833  23.1904083  39.1448553  32.0723833  23.3214083
  33.6548553  45.7853833  19.5674083  34.1218553  45.8693833  18.8354083
  34.1098553  45.2073833  20.0364083  33.7908553  45.7123833  19.5284083
  38.1488553  34.8643833  30.2154083  38.8268553  34.8823833  29.6664083
  38.1038553  34.0283833  30.4604083  38.2418553  34.7433833  30.1704083
  39.9028553  42.7843833  23.7124083  40.2338553  42.1403833  24.1984083
  40.1428553  42.5733833  22.9014083  39.9868553  42.6583833  23.6644083
  41.8708553  36.9153833  35.0514083  41.0228553  36.8163833  34.8734083
  41.8998553  37.6603833  35.5054083  41.7498553  37.0113833  35.0924083
  36.2388553  32.4483833  24.1574083  35.9428553  32.9493833  23.5074083
  37.1058553  32.5263833  24.1004083  36.3228553  32.5343833  24.0534083
  46.4288553  29.8753833  34.1654083  46.2708553  30.6443833  33.7834083
  45.6568553  29.6553833  34.5094083  46.2908553  29.9563833  34.1604083
  39.2178553  31.5903833  26.3804083  39.2908553  32.4503833  26.5094083
  39.1798553  31.5153833  25.5124083  39.2228553  31.7063833  26.2714083
  43.8908553  34.5163833  18.6794083  43.4408553  35.1973833  18.9864083
  44.0048553  34.0123833  19.3824083  43.8418553  34.5423833  18.8284083
  32.0968553  37.0153833  27.8814083  31.8408553  37.8463833  27.8064083
  31.4328553  36.6323833  28.2984083  31.9608553  37.0813833  27.9324083
  43.9898553  46.8573833  20.7834083  44.7168553  47.3293833  20.8854083
  44.2188553  46.0633833  21.0634083  44.1318553  46.8103833  20.8404083
  42.1578553  47.2493833  22.7734083  42.3718553  47.7763833  23.4354083
  42.9248553  47.0753833  22.3944083  42.3028553  47.3013833  22.8154083
  35.1258553  31.8323833  28.3724083  34.6048553  31.2043833  28.0644083
  35.7168553  31.3953833  28.8434083  35.1368553  31.6743833  28.3964083
  49.2848553  34.4893833  24.9744083  48.9388553  35.1673833  25.4004083
  48.6488553  33.8913833  24.9904083  49.1398553  34.5013833  25.0394083
  44.5968553  47.2593833  31.0784083  45.3408553  47.7153833  31.0684083
  44.4758553  47.0453833  30.2414083  44.6888553  47.2953833  30.9534083
  40.8138553  31.2053833  35.8224083  40.9918553  30.3963833  35.5474083
  40.6708553  31.6463833  35.0834083  40.8188553  31.1513833  35.6724083
  41.4078553  36.1313833  24.5954083  41.6948553  35.8993833  23.8054083
  42.1398553  36.2103833  25.0644083  41.5578553  36.1083833  24.5484083
  42.1298553  36.4703833  19.7164083  42.4108553  37.2583833  19.9654083
  41.3538553  36.6353833  19.3534083  42.0568553  36.6113833  19.6994083
  46.1708553  48.4443833  21.1834083  46.8358553  48.2963833  20.6384083
  46.5308553  48.3613833  21.9734083  46.3228553  48.4103833  21.2194083
  48.9598553  32.8123833  30.3434083  49.7168553  32.8843833  29.9154083
  49.0228553  32.0393833  30.7424083  49.0808553  32.7093833  30.3384083
  43.8508553  44.4443833  34.7824083  43.8168553  44.8263833  35.5664083
  44.7048553  44.4023833  34.6114083  43.9718553  44.4943833  34.8734083
  40.9888553  44.6413833  19.5324083  40.8078553  45.1863833  20.1894083
  41.7548553  44.9313833  19.2314083  41.0748553  44.7653833  19.5854083
  44.4958553  32.5373833  20.5864083  45.0358553  31.8553833  20.6624083
  44.5578553  32.9353833  21.3604083  44.5848553  32.4953833  20.7124083
  32.4498553  33.7053833  23.1554083  32.3358553  32.8413833  23.1864083
  31.9748553  33.9993833  23.8254083  32.3628553  33.6213833  23.2584083
  41.7538553  34.9133833  21.9004083  41.2458553  34.2513833  21.6464083
  41.8058553  35.4173833  21.1904083  41.6868553  34.8903833  21.7584083
  42.3028553  47.6083833  32.2804083  43.0708553  47.5283833  31.8744083
  41.7198553  47.4873833  31.6424083  42.3298553  47.5783833  32.1264083
  41.7538553  31.8543833  21.7914083  41.2988553  31.4523833  21.1654083
  42.5268553  32.0093833  21.4164083  41.8008553  31.8183833  21.6434083
  48.5798553  48.2113833  25.1814083  48.1248553  48.9283833  25.3824083
  47.9658553  47.6403833  24.9394083  48.4218553  48.2333833  25.1754083
  40.3518553  34.2213833  26.3134083  40.4258553  34.7893833  25.6554083
  40.4728553  34.7133833  27.0234083  40.3798553  34.3783833  26.3214083
  45.5768553  44.0563833  24.7254083  46.2778553  43.5743833  24.9144083
  44.9168553  43.4873833  24.7704083  45.5828553  43.9013833  24.7594083
  34.9598553  30.0443833  24.6614083  35.4958553  30.7323833  24.6514083
  34.9628553  29.7703833  23.8334083  35.0388553  30.1053833  24.5374083
  37.9158553  40.4773833  28.6864083  38.0878553  40.2673833  29.5154083
  37.2608553  39.9433833  28.4704083  37.8448553  40.3673833  28.7774083
  44.1438553  34.3913833  32.2014083  44.0488553  34.7103833  33.0074083
  43.5508553  33.7523833  32.1634083  44.0418553  34.3433833  32.3154083
  44.8428553  41.1103833  30.4064083  44.3288553  40.6983833  30.9774083
  44.7168553  41.9543833  30.5874083  44.7488553  41.1743833  30.5174083
  45.3998553  30.3353833  25.0374083  45.4488553  30.0173833  25.8484083
  45.7228553  29.6913833  24.5444083  45.4548553  30.1933833  25.0844083
  47.8638553  34.5713833  33.3454083  48.6358553  34.3463833  33.6824083
  47.3888553  34.7883833  34.0454083  47.9078553  34.5703833  33.4984083
  35.4078553  33.8543833  26.3154083  35.6798553  33.4243833  25.6074083
  35.2318553  33.2183833  26.8864083  35.4218553  33.6973833  26.2954083
  48.0958553  41.5493833  20.5334083  48.2148553  41.2623833  21.3484083
  48.9028553  41.5703833  20.2034083  48.2318553  41.5103833  20.6054083
  33.5488553  34.9563833  29.3974083  34.3918553  35.1763833  29.3544083
  33.1598553  35.5293833  28.8664083  33.6158553  35.0733833  29.3124083
  50.3298553  46.0583833  34.7874083  49.6478553  46.3683833  34.3404083
  49.9608553  45.6003833  35.4324083  50.1738553  46.0363833  34.8164083
  45.9908553  38.0863833  20.1184083  45.7708553  38.8173833  19.6964083
  45.5428553  38.1373833  20.8654083  45.8918553  38.2013833  20.1664083
  50.1778553  32.9473833  19.5714083  49.5158553  32.3793833  19.5944083
  49.9848553  33.4593833  18.8914083  50.0518553  32.9393833  19.4744083
  50.5008553  37.3253833  32.1274083  50.7158553  36.5253833  31.8514083
  49.6508553  37.3853833  31.9384083  50.4068553  37.2163833  32.0584083
  48.1798553  32.5053833  21.8504083  48.9258553  32.0983833  22.0494083
  48.4428553  33.2203833  21.4254083  48.3288553  32.5513833  21.8174083
  31.9938553  43.7793833  22.0974083  32.5458553  44.3483833  22.4614083
  31.7618553  43.2643833  22.7624083  32.0408553  43.7873833  22.2494083
  44.6338553  34.7933833  26.9234083  44.9778553  34.9453833  27.7104083
  44.1808553  34.0553833  27.0364083  44.6178553  34.7063833  27.0564083
  31.8238553  42.2283833  19.7254083  32.5798553  41.7963833  19.7834083
  31.8388553  42.7603833  20.4164083  31.9378553  42.2433833  19.8364083
  39.1098553  34.0133833  21.3804083  39.1078553  33.8963833  20.5154083
  38.9288553  34.8613833  21.4724083  39.0828553  34.1213833  21.2664083
  48.1638553  46.4403833  32.8774083  47.4928553  46.9543833  33.0954083
  48.2268553  46.5403833  32.0134083  48.0738553  46.5313833  32.7824083
  45.9548553  36.1253833  29.4774083  45.2928553  36.4533833  29.9404083
  46.1418553  36.7593833  28.9084083  45.8848553  36.2673833  29.4614083
  40.1598553  47.1893833  30.4734083  39.8828553  46.5483833  29.9504083
  39.9518553  47.9153833  30.0354083  40.0888553  47.2023833  30.3314083
  42.5998553  32.0313833  32.9064083  42.7488553  31.2063833  32.6634083
  42.9788553  32.0863833  33.6904083  42.6778553  31.9173833  32.9864083
  44.1478553  34.0943833  22.9884083  44.6378553  34.8113833  22.9114083
  43.3578553  34.3553833  22.7254083  44.1038553  34.2383833  22.9384083
  40.7298553  35.5643833  28.7134083  41.2098553  36.2633833  28.9214083
  41.1028553  34.9173833  29.1644083  40.8558553  35.5723833  28.8104083
  42.9188553  38.7333833  20.9874083  42.9108553  39.4553833  20.4974083
  42.2798553  38.8683833  21.5644083  42.8238553  38.8603833  21.0004083
  47.8908553  42.6033833  24.9684083  48.2468553  42.2533833  25.6834083
  47.8828553  41.9423833  24.3984083  47.9428553  42.4533833  24.9894083
  43.9358553  45.6693833  28.8124083  43.3328553  45.3733833  28.2554083
  44.4808553  46.1213833  28.3034083  43.9268553  45.6923833  28.6544083
  43.9488553  42.5203833  28.2124083  43.1518553  42.7443833  28.4864083
  44.2068553  41.9263833  28.7974083  43.8688553  42.4653833  28.3394083
  37.5118553  31.0753833  20.6484083  37.6088553  30.9683833  21.5094083
  36.8038553  31.5813833  20.5834083  37.4218553  31.1343833  20.7664083
  40.1328553  46.8483833  21.0624083  40.7548553  47.0113833  21.6524083
  40.1688553  47.5393833  20.5304083  40.2298553  46.9743833  21.0714083
  47.2088553  40.5183833  33.0584083  47.2638553  40.6433833  32.1964083
  47.9618553  40.8383833  33.3604083  47.3278553  40.5833833  32.9754083
  43.3998553  45.8673833  37.3354083  43.5638553  46.1503833  38.1444083
  43.6628553  46.5283833  36.8304083  43.4628553  46.0073833  37.3804083
  48.2408553  30.8163833  36.0454083  47.6038553  30.4163833  35.6034083
  48.2668553  30.3853833  36.8034083  48.1508553  30.6943833  36.0914083
  42.9398553  40.3243833  32.6584083  42.7848553  40.9343833  33.2624083
  43.4738553  39.7663833  33.0644083  42.9958553  40.3323833  32.8074083
  31.6308553  31.0433833  22.8594083  31.7598553  30.3353833  22.3674083
  31.2638553  30.7253833  23.5844083  31.5958553  30.8913833  22.8944083
  41.3238553  38.7243833  23.3164083  41.3828553  39.3743833  23.8954083
  41.1348553  38.0283833  23.8074083  41.3048553  38.7173833  23.4744083
  46.5498553  43.0533833  29.1854083  46.0708553  43.3513833  28.5194083
  46.1938553  42.2773833  29.3634083  46.4268553  42.9823833  29.1134083
  35.8198553  33.2413833  19.8284083  35.3088553  33.2943833  19.1224083
  36.6038553  33.4813833  19.5324083  35.8598553  33.2843833  19.6804083
  40.5468553  40.7713833  27.7474083  39.6998553  40.5773833  27.8284083
  40.8708553  40.6063833  28.5404083  40.4688553  40.7183833  27.8764083
  37.2988553  47.5013833  18.6334083  37.7378553  46.8043833  18.9214083
  37.5058553  48.1253833  19.2064083  37.3948553  47.4903833  18.7604083
  37.6248553  35.6353833  26.7984083  38.4708553  35.4453833  26.8964083
  37.2548553  34.8583833  26.6604083  37.6948553  35.4923833  26.7924083
  50.2418553  47.2193833  21.1254083  50.9358553  46.7523833  20.8774083
  49.7028553  46.6213833  21.4624083  50.2648553  47.0613833  21.1384083
  47.4808553  39.9953833  30.3044083  47.4738553  39.2193833  30.7024083
  46.6398553  40.2293833  30.2974083  47.3558553  39.9153833  30.3624083
  36.9708553  38.4073833  18.9394083  36.3608553  38.0023833  19.4134083
  36.5848553  38.5253833  18.1664083  36.8238553  38.3643833  18.8954083
  48.7368553  40.0663833  27.7414083  48.4508553  40.4673833  28.4614083
  49.5968553  40.0043833  27.8684083  48.8218553  40.1163833  27.8664083
  38.4258553  36.8683833  21.6494083  38.6978553  37.6943833  21.7164083
  37.5628553  36.9433833  21.5534083  38.3388553  37.0013833  21.6444083
  46.3988553  33.9903833  36.2814083  45.8738553  34.4493833  36.8054083
  46.0378553  33.1953833  36.2754083  46.2678553  33.9403833  36.3574083
  49.8678553  45.6993833  28.2704083  50.1578553  45.9563833  27.4894083
  50.5628553  45.7953833  28.7894083  50.0138553  45.7513833  28.2314083
  44.8908553  37.5593833  36.3574083  44.9638553  37.6633833  37.2204083
  44.2568553  38.1173833  36.1364083  44.8078553  37.6573833  36.4524083
  47.1588553  37.8783833  34.7224083  47.4778553  38.6643833  34.9254083
  46.7888553  37.6083833  35.4654083  47.1518553  37.9543833  34.8624083
  46.4728553  44.3023833  20.2524083  46.8068553  43.4963833  20.2874083
  45.7178553  44.2303833  20.6824083  46.4108553  44.1723833  20.3214083
  46.9548553  36.1363833  25.9114083  46.2098553  35.8133833  26.2294083
  46.9568553  36.9623833  26.1914083  46.8448553  36.2103833  25.9994083
  49.8568553  38.4203833  37.4574083  49.8048553  38.0793833  36.6564083
  50.5938553  38.8873833  37.4354083  49.9578553  38.4393833  37.3354083
  49.3948553  42.0963833  33.6634083  50.0228553  41.5473833  33.4074083
  49.3338553  42.6613833  33.0014083  49.4788553  42.0993833  33.5274083
  43.8468553  42.1773833  19.6554083  44.5308553  41.6633833  19.4864083
  43.4298553  42.2233833  18.8904083  43.8858553  42.1083833  19.5174083
  45.8668553  32.4663833  33.3724083  46.6108553  32.9183833  33.3094083
  45.3008553  32.9363833  32.9034083  45.8938553  32.6033833  33.2944083
  41.0448553  39.7503833  30.4504083  41.5208553  40.1243833  31.0784083
  40.2218553  39.8843833  30.7094083  40.9938553  39.8253833  30.5814083
  37.7548553  35.3533833  33.1914083  37.9158553  34.6093833  33.6184083
  37.7098553  35.1043833  32.3564083  37.7718553  35.2063833  33.1314083
  47.1518553  30.4463833  31.0424083  46.8718553  31.2713833  30.9984083
  47.8678553  30.4993833  31.5384083  47.2168553  30.5763833  31.1094083
  39.5068553  31.1613833  33.0714083  40.2118553  31.4813833  32.6694083
  39.7478553  30.3543833  33.2984083  39.6458553  31.0893833  33.0454083
  42.8008553  42.0053833  36.0564083  43.5578553  42.2913833  35.7304083
  42.2538553  42.0573833  35.3784083  42.8318553  42.0553833  35.9074083
  46.7098553  44.5553833  34.5604083  47.0558553  44.8253833  35.3144083
  47.0038553  45.1373833  33.9804083  46.8048553  44.6813833  34.5864083
  48.5728553  36.7013833  19.8994083  48.9508553  37.3783833  19.4994083
  47.7308553  36.9253833  19.9304083  48.5038553  36.8343833  19.8444083
  40.0858553  40.1473833  18.9824083  39.2808553  39.9703833  18.6974083
  40.0528553  40.9983833  19.1744083  39.9618553  40.2463833  18.9694083
  36.0158553  36.2143833  29.1324083  36.4558553  36.1113833  28.3864083
  36.5608553  35.9013833  29.7374083  36.1608553  36.1533833  29.1114083
  44.0318553  35.3163833  34.7244083  43.3838553  35.7863833  35.0724083
  44.5968553  35.2273833  35.3834083  44.0198553  35.3723833  34.8734083
  43.7198553  36.8533833  31.0224083  44.0218553  37.2733833  31.7254083
  43.7558553  36.0133833  31.2544083  43.7698553  36.7913833  31.1604083
  41.1448553  47.0203833  34.9474083  41.6228553  46.4203833  34.5314083
  40.7938553  46.5773833  35.6124083  41.1638553  46.8663833  34.9844083
  46.2678553  36.3003833  23.2744083  46.4748553  36.0993833  24.0984083
  47.0238553  36.5683833  22.9324083  46.4098553  36.3103833  23.3454083
  39.5628553  31.1993833  29.1794083  38.7368553  31.0503833  29.4164083
  39.5228553  31.2343833  28.3084083  39.4348553  31.1823833  29.0854083
  47.2898553  32.3833833  24.7484083  46.5758553  31.9123833  24.9194083
  47.1278553  32.7243833  23.9624083  47.1608553  32.3643833  24.6574083
  47.7328553  40.3273833  23.1284083  48.2088553  39.5983833  23.0804083
  46.9118553  40.0413833  23.0524083  47.6818553  40.1773833  23.1094083
  41.2038553  42.2393833  33.9674083  40.4088553  42.1753833  34.3184083
  41.2748553  43.0863833  33.7724083  41.0968553  42.3543833  33.9904083
  35.1918553  34.3413833  22.4394083  35.3178553  34.0123833  21.6414083
  34.3798553  34.0923833  22.6384083  35.0908553  34.2563833  22.3514083
  43.9488553  41.4943833  25.4834083  44.0248553  41.8353833  26.2824083
  44.1178553  40.6473833  25.6044083  43.9848553  41.4193833  25.6194083
  41.4708553  40.7683833  25.0484083  41.1728553  40.4533833  25.8054083
  42.1658553  41.2413833  25.2834083  41.5298553  40.7913833  25.1954083
  41.6928553  44.8863833  33.0754083  42.3798553  44.7723833  33.6004083
  41.8268553  45.6773833  32.7314083  41.8138553  44.9863833  33.1024083
  49.8688553  37.4953833  34.8864083  49.0138553  37.3733833  35.0124083
  50.0218553  37.1003833  34.1234083  49.7648553  37.4183833  34.7924083
  44.3818553  38.1603833  33.4624083  44.1268553  37.4413833  33.8844083
  45.2028553  38.2763833  33.7324083  44.4658553  38.0713833  33.5644083
  42.3158553  39.3503833  36.6494083  42.6388553  40.0363833  36.2174083
  41.6118553  39.6733833  37.0514083  42.2588553  39.4993833  36.6444083
  45.3998553  47.7243833  27.5784083  44.9488553  48.3673833  27.9574083
  46.1078553  47.6453833  28.0834083  45.4378553  47.8073833  27.7094083
  42.1008553  42.8143833  30.5084083  41.4068553  43.2163833  30.8514083
  42.7778553  43.2473833  30.8474083  42.0978553  42.9373833  30.6094083
  32.9438553  34.8003833  32.1304083  33.0208553  34.6313833  31.2774083
  33.6898553  35.2063833  32.3274083  33.0648553  34.8353833  32.0334083
  48.5028553  37.4403833  22.5704083  48.6058553  37.3823833  21.7064083
  49.2438553  37.1083833  22.8884083  48.6278553  37.3833833  22.4894083
  42.4228553  44.4053833  23.6774083  42.2178553  45.2383833  23.5184083
  41.6478553  44.0233833  23.7994083  42.2778553  44.4723833  23.6724083
  47.6048553  37.5863833  31.9264083  47.6028553  36.7233833  32.0504083
  47.6718553  37.9103833  32.7334083  47.6148553  37.5063833  32.0634083
  33.7968553  35.9623833  18.9724083  33.1248553  35.9763833  19.5284083
  33.8918553  35.1143833  18.7884083  33.7118553  35.8393833  19.0274083
  43.4838553  32.3863833  35.7084083  43.5758553  33.0983833  36.2024083
  42.8468553  31.9413833  36.1054083  43.4028553  32.4253833  35.8404083
  42.4778553  32.5763833  26.5624083  41.7778553  33.0943833  26.5064083
  42.5158553  32.1963833  25.7784083  42.3798553  32.5973833  26.4384083
  37.7848553  44.6673833  20.0864083  38.2258553  44.7473833  20.8344083
  36.9798553  44.4513833  20.3444083  37.7308553  44.6473833  20.2354083
  46.0758553  33.0923833  29.3624083  46.9308553  33.1913833  29.5074083
  45.7068553  33.6453833  29.9274083  46.1478553  33.1893833  29.4674083
  46.3798553  38.3723833  27.8534083  47.0458553  38.9133833  28.0134083
  46.0348553  38.6833833  27.1144083  46.4268553  38.4983833  27.7684083
  46.6928553  46.4383833  23.6604083  46.5188553  45.7843833  24.2104083
  47.4058553  46.1673833  23.2374083  46.7728553  46.3013833  23.6794083
  35.1138553  43.7373833  20.6874083  34.8698553  43.4303833  21.4674083
  35.0808553  43.0343833  20.1714083  35.0728553  43.5883833  20.7264083
  37.9328553  41.9823833  19.4304083  37.1148553  41.7143833  19.5704083
  37.9048553  42.8343833  19.6154083  37.8078553  42.0693833  19.4784083
  37.5328553  32.2953833  31.1894083  36.6688553  32.3793833  31.2694083
  37.7528553  31.7813833  31.8584083  37.4378553  32.2323833  31.3004083
  49.5508553  30.9303833  32.5184083  49.4988553  30.8863833  33.3884083
  50.2378553  30.4273833  32.3284083  49.6448553  30.8503833  32.6184083
  41.6358553  33.0433833  29.5634083  40.8988553  32.5893833  29.6764083
  42.2068553  32.6413833  30.0864083  41.6108553  32.9163833  29.6574083
  44.3678553  43.8913833  31.3514083  44.5738553  44.1923833  32.1434083
  44.3068553  44.6133833  30.8664083  44.3888553  44.0423833  31.3964083
  43.9018553  48.1053833  35.5974083  43.1488553  48.0873833  35.1564083
  44.0698553  48.9573833  35.6814083  43.8158553  48.2283833  35.5444083
  39.1388553  37.3723833  34.7674083  38.8168553  36.7963833  34.1974083
  38.7798553  38.1273833  34.5214083  39.0388553  37.3983833  34.6474083
  39.9348553  30.6243833  19.3944083  40.0128553  30.8713833  18.5614083
  39.1918553  31.0013833  19.6524083  39.8368553  30.7163833  19.3094083
  49.1798553  42.5303833  30.8094083  49.1478553  41.6683833  30.6744083
  48.4868553  42.8323833  30.3754083  49.0728553  42.4473833  30.7254083
  47.2848553  45.7903833  29.6064083  47.8118553  45.7073833  28.9154083
  46.8938553  45.0123833  29.6604083  47.3048553  45.6633833  29.5124083
  34.7528553  32.3783833  31.8374083  34.4098553  31.6113833  31.6034083
  34.0578553  32.9023833  31.9014083  34.5998553  32.3423833  31.8124083
  43.7988553  31.2343833  28.8144083  44.4688553  31.7783833  28.9414083
  43.2958553  31.6583833  28.2414083  43.8238553  31.3773833  28.7484083
  43.1578553  37.0423833  26.3074083  43.7088553  36.4353833  26.6074083
  42.7328553  37.3053833  27.0224083  43.1768553  36.9913833  26.4564083
  45.1278553  38.8733833  22.8694083  45.1958553  38.0233833  23.0504083
  44.3048553  38.9593833  22.5914083  45.0158553  38.7603833  22.8554083
  34.8798553  47.3673833  22.0794083  34.7348553  47.5233833  21.2334083
  35.7458553  47.4463833  22.1574083  34.9868553  47.4023833  21.9664083
  39.0468553  39.7643833  21.8074083  39.1468553  39.9033833  20.9524083
  39.8648553  39.7043833  22.1034083  39.1818553  39.7753833  21.7244083
  48.2068553  47.8283833  19.2874083  48.8438553  47.6943833  19.8684083
  47.8658553  47.0343833  19.1704083  48.2508553  47.6913833  19.3554083
  48.4018553  40.2463833  36.0204083  49.0358553  40.0763833  36.5944083
  48.8188553  40.6493833  35.3684083  48.5568553  40.2813833  36.0094083
  44.2818553  44.0933833  21.6094083  44.0308553  43.9653833  22.4354083
  43.9648553  43.3983833  21.1884083  44.1978553  43.9723833  21.6694083
  49.0268553  34.8103833  36.7584083  48.8308553  35.4543833  37.3134083
  48.3048553  34.3203833  36.7504083  48.8918553  34.8333833  36.8394083
  48.9258553  35.7513833  29.7294083  48.0928553  36.0013833  29.6574083
  48.8698553  34.9113833  29.9584083  48.7948553  35.6643833  29.7524083
  45.8128553  40.3573833  37.3754083  46.6838553  40.3213833  37.3394083
  45.5938553  40.7773833  36.6434083  45.9098553  40.4133833  37.2624083
  41.1678553  42.3013833  21.0394083  41.8848553  41.9543833  20.6834083
  41.1338553  43.1013833  20.6914083  41.2688553  42.3683833  20.9354083
  42.5768553  30.9423833   5.2781673  42.3318553  31.4303833   4.5981673
  43.4398553  30.8693833   5.1781673  42.6678553  31.0033833   5.1631673
  42.3858553  37.8583833   9.9491673  41.8618553  38.4543833  10.3121673
  42.7828553  37.4903833  10.6331673  42.3668553  37.8923833  10.1041673
  32.2548553  41.9983833   5.4051673  31.8138553  42.1163833   6.1481673
  31.9718553  41.2233833   5.1201673  32.1478553  41.9013833   5.4731673
  48.5298553  45.2993833   2.9201673  49.2308553  44.7803833   2.9161673
  47.9428553  44.8543833   2.4511673  48.5468553  45.1563833   2.8501673
  45.0568553  38.9253833   6.6251673  45.1368553  38.9293833   5.7561673
  44.4728553  38.2933833   6.7741673  44.9818553  38.8323833   6.5191673
  34.7638553  42.6943833   4.4841673  35.3718553  42.5243833   5.0871673
  34.0128553  42.5543833   4.9051673  34.7428553  42.6483833   4.6351673
  39.0458553  32.0293833   4.4331673  38.9758553  32.7063833   3.8871673
  39.7868553  31.6413833   4.1841673  39.1448553  32.0723833   4.3151673
  32.1948553  44.7333833  11.6601673  32.3238553  44.4533833  12.4761673
  31.5848553  44.1923833  11.3511673  32.1238553  44.6123833  11.7351673
  38.7688553  42.2583833  16.7271673  38.5328553  42.2553833  17.5671673
  38.0208553  42.1103833  16.3031673  38.6228553  42.2353833  16.7881673
  33.6408553  39.2543833   5.8621673  33.1788553  38.8623833   5.2351673
  34.3408553  38.7413833   5.9541673  33.6758553  39.1213833   5.7831673
  38.1488553  34.8643833  11.2091673  38.8268553  34.8823833  10.6601673
  38.1038553  34.0283833  11.4541673  38.2418553  34.7433833  11.1641673
  38.7508553  45.4503833  13.9901673  38.8888553  46.2103833  13.5831673
  39.5418553  45.0853833  14.0171673  38.8878553  45.5093833  13.9341673
  35.6418553  37.3543833   5.8851673  36.4588553  37.1673833   6.1281673
  35.1648553  36.7403833   6.2811673  35.6918553  37.2363833   5.9801673
  39.8458553  43.3353833   8.4951673  40.1938553  42.5363833   8.5251673
  40.5108553  43.8393833   8.2401673  39.9958553  43.2913833   8.4621673
  39.9028553  42.7843833   4.7061673  40.2338553  42.1403833   5.1921673
  40.1428553  42.5733833   3.8951673  39.9868553  42.6583833   4.6581673
  41.8708553  36.9153833  16.0451673  41.0228553  36.8163833  15.8671673
  41.8998553  37.6603833  16.4991673  41.7498553  37.0113833  16.0861673
  36.2388553  32.4483833   5.1511673  35.9428553  32.9493833   4.5011673
  37.1058553  32.5263833   5.0941673  36.3228553  32.5343833   5.0471673
  46.4288553  29.8753833  15.1591673  46.2708553  30.6443833  14.7771673
  45.6568553  29.6553833  15.5031673  46.2908553  29.9563833  15.1541673
  39.2178553  31.5903833   7.3741673  39.2908553  32.4503833   7.5031673
  39.1798553  31.5153833   6.5061673  39.2228553  31.7063833   7.2651673
  32.0968553  37.0153833   8.8751673  31.8408553  37.8463833   8.8001673
  31.4328553  36.6323833   9.2921673  31.9608553  37.0813833   8.9261673
  32.0068553  46.7253833   6.7751673  31.4148553  47.2833833   6.4621673
  32.4328553  46.4563833   6.0631673  31.9828553  46.7673833   6.6241673
  37.8468553  44.5693833   4.2551673  37.2678553  44.2943833   4.8471673
  38.4708553  43.9603833   4.2801673  37.8538553  44.4393833   4.3461673
  43.9898553  46.8573833   1.7771673  44.7168553  47.3293833   1.8791673
  44.2188553  46.0633833   2.0571673  44.1318553  46.8103833   1.8341673
  42.1578553  47.2493833   3.7671673  42.3718553  47.7763833   4.4291673
  42.9248553  47.0753833   3.3881673  42.3028553  47.3013833   3.8091673
  35.1258553  31.8323833   9.3661673  34.6048553  31.2043833   9.0581673
  35.7168553  31.3953833   9.8371673  35.1368553  31.6743833   9.3901673
  38.4318553  33.9653833  18.6641673  38.5488553  33.5113833  17.9281673
  38.7198553  34.7633833  18.4611673  38.4918553  34.0163833  18.5251673
  33.5518553  45.3953833   4.7061673  34.2078553  44.8203833   4.7211673
  33.9408553  46.1443833   4.4851673  33.7068553  45.4203833   4.6761673
  49.2848553  34.4893833   5.9681673  48.9388553  35.1673833   6.3941673
  48.6488553  33.8913833   5.9841673  49.1398553  34.5013833   6.0331673
  44.5968553  47.2593833  12.0721673  45.3408553  47.7153833  12.0621673
  44.4758553  47.0453833  11.2351673  44.6888553  47.2953833  11.9471673
  34.1648553  33.5623833  17.6481673  33.3868553  33.1723833  17.5761673
  34.6558553  33.1503833  17.0571673  34.1218553  33.4433833  17.5501673
  34.3698553  43.8823833   8.2061673  34.7928553  43.5263833   7.5321673
  34.6938553  43.4603833   8.8981673  34.4798553  43.7673833   8.2091673
  37.6008553  46.7343833   7.5021673  38.4448553  46.8383833   7.3071673
  37.3038553  47.5523833   7.5701673  37.6818553  46.8703833   7.4831673
  40.8138553  31.2053833  16.8161673  40.9918553  30.3963833  16.5411673
  40.6708553  31.6463833  16.0771673  40.8188553  31.1513833  16.6661673
  41.4078553  36.1313833   5.5891673  41.6948553  35.8993833   4.7991673
  42.1398553  36.2103833   6.0581673  41.5578553  36.1083833   5.5421673
  46.1708553  48.4443833   2.1771673  46.8358553  48.2963833   1.6321673
  46.5308553  48.3613833   2.9671673  46.3228553  48.4103833   2.2131673
  36.5988553  47.9533833  13.2421673  36.8908553  47.8863833  14.0621673
  35.9728553  47.3483833  13.1971673  36.5498553  47.8543833  13.3571673
  48.9598553  32.8123833  11.3371673  49.7168553  32.8843833  10.9091673
  49.0228553  32.0393833  11.7361673  49.0808553  32.7093833  11.3321673
  31.5128553  34.1103833  15.2341673  31.5088553  34.6973833  15.8801673
  32.1068553  34.4223833  14.6771673  31.5998553  34.2433833  15.2471673
  43.8508553  44.4443833  15.7761673  43.8168553  44.8263833  16.5601673
  44.7048553  44.4023833  15.6051673  43.9718553  44.4943833  15.8671673
  32.4498553  33.7053833   4.1491673  32.3358553  32.8413833   4.1801673
  31.9748553  33.9993833   4.8191673  32.3628553  33.6213833   4.2521673
  34.5918553  46.1153833  12.3641673  33.8938553  45.6073833  12.4901673
  34.8518553  45.9103833  11.5561673  34.5268553  46.0103833  12.2631673
  41.7538553  34.9133833   2.8941673  41.2458553  34.2513833   2.6401673
  41.8058553  35.4173833   2.1841673  41.6868553  34.8903833   2.7521673
  42.3028553  47.6083833  13.2741673  43.0708553  47.5283833  12.8681673
  41.7198553  47.4873833  12.6361673  42.3298553  47.5783833  13.1201673
  41.7538553  31.8543833   2.7851673  41.2988553  31.4523833   2.1591673
  42.5268553  32.0093833   2.4101673  41.8008553  31.8183833   2.6371673
  48.5798553  48.2113833   6.1751673  48.1248553  48.9283833   6.3761673
  47.9658553  47.6403833   5.9331673  48.4218553  48.2333833   6.1691673
  40.3518553  34.2213833   7.3071673  40.4258553  34.7893833   6.6491673
  40.4728553  34.7133833   8.0171673  40.3798553  34.3783833   7.3151673
  45.5768553  44.0563833   5.7191673  46.2778553  43.5743833   5.9081673
  44.9168553  43.4873833   5.7641673  45.5828553  43.9013833   5.7531673
  35.9528553  44.9663833  14.9311673  36.7938553  45.0293833  14.7091673
  35.9158553  45.3633833  15.7071673  36.0718553  45.0343833  15.0131673
  34.9598553  30.0443833   5.6551673  35.4958553  30.7323833   5.6451673
  34.9628553  29.7703833   4.8271673  35.0388553  30.1053833   5.5311673
  37.9158553  40.4773833   9.6801673  38.0878553  40.2673833  10.5091673
  37.2608553  39.9433833   9.4641673  37.8448553  40.3673833   9.7711673
  44.1438553  34.3913833  13.1951673  44.0488553  34.7103833  14.0011673
  43.5508553  33.7523833  13.1571673  44.0418553  34.3433833  13.3091673
  38.6658553  40.4153833  12.2701673  38.7188553  41.2623833  12.4721673
  38.3808553  40.0453833  13.0071673  38.6318553  40.4853833  12.4081673
  44.8428553  41.1103833  11.4001673  44.3288553  40.6983833  11.9711673
  44.7168553  41.9543833  11.5811673  44.7488553  41.1743833  11.5111673
  45.3998553  30.3353833   6.0311673  45.4488553  30.0173833   6.8421673
  45.7228553  29.6913833   5.5381673  45.4548553  30.1933833   6.0781673
  31.4868553  44.7863833  18.4811673  32.2428553  45.1353833  18.7391673
  31.6638553  43.9333833  18.4241673  31.6248553  44.7113833  18.5111673
  47.8638553  34.5713833  14.3391673  48.6358553  34.3463833  14.6761673
  47.3888553  34.7883833  15.0391673  47.9078553  34.5703833  14.4921673
  35.4078553  33.8543833   7.3091673  35.6798553  33.4243833   6.6011673
  35.2318553  33.2183833   7.8801673  35.4218553  33.6973833   7.2891673
  35.2318553  41.2813833   6.8581673  36.0828553  41.2013833   6.6851673
  34.8748553  40.5993833   6.4461673  35.3048553  41.1683833   6.7711673
  33.9988553  48.0063833   8.0951673  33.3258553  47.5083833   7.8501673
  34.4018553  48.1913833   7.3441673  33.9588553  47.9603833   7.9481673
  33.5488553  34.9563833  10.3911673  34.3918553  35.1763833  10.3481673
  33.1598553  35.5293833   9.8601673  33.6158553  35.0733833  10.3061673
  50.3298553  46.0583833  15.7811673  49.6478553  46.3683833  15.3341673
  49.9608553  45.6003833  16.4261673  50.1738553  46.0363833  15.8101673
  37.5998553  41.2883833   5.0931673  38.3128553  41.7833833   5.1831673
  37.8218553  40.7213833   4.4671673  37.7378553  41.2773833   5.0141673
  31.7558553  42.9313833   8.4131673  31.0888553  43.4193833   8.6891673
  32.4358553  43.4763833   8.4421673  31.7578553  43.0833833   8.4581673
  39.4028553  36.6413833  18.5091673  38.9188553  37.2183833  18.9511673
  39.3748553  36.9363833  17.6881673  39.3268553  36.7703833  18.4531673
  50.5008553  37.3253833  13.1211673  50.7158553  36.5253833  12.8451673
  49.6508553  37.3853833  12.9321673  50.4068553  37.2163833  13.0521673
  31.8218553  39.6153833   3.5161673  31.6368553  38.7763833   3.6681673
  32.4808553  39.5793833   2.9461673  31.8918553  39.4863833   3.4541673
  48.1798553  32.5053833   2.8441673  48.9258553  32.0983833   3.0431673
  48.4428553  33.2203833   2.4191673  48.3288553  32.5513833   2.8111673
  42.1228553  44.9913833   7.4201673  41.5998553  45.6253833   7.1271673
  42.4328553  44.6273833   6.6911673  42.0908553  45.0313833   7.2691673
  31.9938553  43.7793833   3.0911673  32.5458553  44.3483833   3.4551673
  31.7618553  43.2643833   3.7561673  32.0408553  43.7873833   3.2431673
  36.1978553  42.7793833  10.1801673  36.6648553  43.0683833  10.8581673
  36.7698553  42.3013833   9.7261673  36.3518553  42.7513833  10.2131673
  44.6338553  34.7933833   7.9171673  44.9778553  34.9453833   8.7041673
  44.1808553  34.0553833   8.0301673  44.6178553  34.7063833   8.0501673
  32.7638553  40.4493833   8.7241673  33.1948553  40.3203833   7.9771673
  32.5588553  41.2973833   8.6981673  32.7968553  40.5553833   8.6101673
  48.1638553  46.4403833  13.8711673  47.4928553  46.9543833  14.0891673
  48.2268553  46.5403833  13.0071673  48.0738553  46.5313833  13.7761673
  36.8478553  43.9653833   7.0061673  36.9738553  44.8083833   7.1931673
  37.5158553  43.5663833   7.4021673  36.9658553  44.0313833   7.0921673
  34.9778553  37.4483833  16.8681673  34.4418553  36.9423833  17.3361673
  34.9978553  37.0583833  16.0881673  34.9008553  37.3153833  16.8221673
  35.6298553  38.6753833   8.6071673  34.8488553  38.6163833   8.2241673
  35.7018553  37.9233833   9.0441673  35.5248553  38.5563833   8.6151673
  36.0598553  38.4123833  12.0751673  36.0848553  37.7373833  11.5241673
  35.4138553  38.9083833  11.7631673  35.9688553  38.3853833  11.9481673
  45.9548553  36.1253833  10.4711673  45.2928553  36.4533833  10.9341673
  46.1418553  36.7593833   9.9021673  45.8848553  36.2673833  10.4551673
  40.1598553  47.1893833  11.4671673  39.8828553  46.5483833  10.9441673
  39.9518553  47.9153833  11.0291673  40.0888553  47.2023833  11.3251673
  42.5998553  32.0313833  13.9001673  42.7488553  31.2063833  13.6571673
  42.9788553  32.0863833  14.6841673  42.6778553  31.9173833  13.9801673
  44.1478553  34.0943833   3.9821673  44.6378553  34.8113833   3.9051673
  43.3578553  34.3553833   3.7191673  44.1038553  34.2383833   3.9321673
  33.8588553  39.7673833  17.6341673  33.8218553  40.2683833  16.9201673
  34.1898553  39.0153833  17.3391673  33.9018553  39.7293833  17.4851673
  45.4618553  41.9723833  15.8921673  45.9458553  42.6903833  15.9901673
  45.8558553  41.5453833  15.2411673  45.5918553  42.0153833  15.8101673
  39.7578553  44.8173833  17.0691673  40.1118553  44.6393833  17.8461673
  39.3218553  44.0883833  16.8701673  39.7458553  44.6833833  17.1551673
  40.7298553  35.5643833   9.7071673  41.2098553  36.2633833   9.9151673
  41.1028553  34.9173833  10.1581673  40.8558553  35.5723833   9.8041673
  47.8908553  42.6033833   5.9621673  48.2468553  42.2533833   6.6771673
  47.8828553  41.9423833   5.3921673  47.9428553  42.4533833   5.9831673
  43.9358553  45.6693833   9.8061673  43.3328553  45.3733833   9.2491673
  44.4808553  46.1213833   9.2971673  43.9268553  45.6923833   9.6481673
  43.9488553  42.5203833   9.2061673  43.1518553  42.7443833   9.4801673
  44.2068553  41.9263833   9.7911673  43.8688553  42.4653833   9.3331673
  37.8408553  47.3323833   3.6541673  37.6938553  46.5563833   4.0251673
  38.5298553  47.1853833   3.1391673  37.9208553  47.1953833   3.6331673
  47.2088553  40.5183833  14.0521673  47.2638553  40.6433833  13.1901673
  47.9618553  40.8383833  14.3541673  47.3278553  40.5833833  13.9691673
  43.3998553  45.8673833  18.3291673  43.5638553  46.1503833  19.1381673
  43.6628553  46.5283833  17.8241673  43.4628553  46.0073833  18.3741673
  48.2408553  30.8163833  17.0391673  47.6038553  30.4163833  16.5971673
  48.2668553  30.3853833  17.7971673  48.1508553  30.6943833  17.0851673
  34.6338553  39.3823833   2.8851673  34.9578553  38.6033833   2.6631673
  35.2798553  39.7503833   3.3401673  34.7768553  39.3213833   2.9191673
  42.9398553  40.3243833  13.6521673  42.7848553  40.9343833  14.2561673
  43.4738553  39.7663833  14.0581673  42.9958553  40.3323833  13.8011673
  31.6308553  31.0433833   3.8531673  31.7598553  30.3353833   3.3611673
  31.2638553  30.7253833   4.5781673  31.5958553  30.8913833   3.8881673
  41.3238553  38.7243833   4.3101673  41.3828553  39.3743833   4.8891673
  41.1348553  38.0283833   4.8011673  41.3048553  38.7173833   4.4681673
  46.5498553  43.0533833  10.1791673  46.0708553  43.3513833   9.5131673
  46.1938553  42.2773833  10.3571673  46.4268553  42.9823833  10.1071673
  40.5468553  40.7713833   8.7411673  39.6998553  40.5773833   8.8221673
  40.8708553  40.6063833   9.5341673  40.4688553  40.7183833   8.8701673
  34.3948553  40.4643833  11.0571673  35.1168553  40.9523833  11.0201673
  34.1248553  40.4343833  10.2281673  34.4618553  40.5323833  10.9291673
  37.6248553  35.6353833   7.7921673  38.4708553  35.4453833   7.8901673
  37.2548553  34.8583833   7.6541673  37.6948553  35.4923833   7.7861673
  50.2418553  47.2193833   2.1191673  50.9358553  46.7523833   1.8711673
  49.7028553  46.6213833   2.4561673  50.2648553  47.0613833   2.1321673
  32.4458553  36.9733833   4.4471673  32.9348553  36.6813833   5.1081673
  32.5748553  36.3803833   3.8201673  32.5368553  36.8423833   4.4521673
  47.4808553  39.9953833  11.2981673  47.4738553  39.2193833  11.6961673
  46.6398553  40.2293833  11.2911673  47.3558553  39.9153833  11.3561673
  33.7898553  41.5163833  15.3351673  33.3688553  40.9983833  14.7741673
  33.4378553  42.3023833  15.1921673  33.6758553  41.5563833  15.2311673
  48.7368553  40.0663833   8.7351673  48.4508553  40.4673833   9.4551673
  49.5968553  40.0043833   8.8621673  48.8218553  40.1163833   8.8601673
  38.4258553  36.8683833   2.6431673  38.6978553  37.6943833   2.7101673
  37.5628553  36.9433833   2.5471673  38.3388553  37.0013833   2.6381673
  46.3988553  33.9903833  17.2751673  45.8738553  34.4493833  17.7991673
  46.0378553  33.1953833  17.2691673  46.2678553  33.9403833  17.3511673
  31.9058553  32.8383833   9.1791673  31.9498553  33.1823833   8.3781673
  32.6608553  33.0753833   9.5461673  32.0238553  32.9243833   9.1151673
  49.8678553  45.6993833   9.2641673  50.1578553  45.9563833   8.4831673
  50.5628553  45.7953833   9.7831673  50.0138553  45.7513833   9.2251673
  44.8908553  37.5593833  17.3511673  44.9638553  37.6633833  18.2141673
  44.2568553  38.1173833  17.1301673  44.8078553  37.6573833  17.4461673
  47.1588553  37.8783833  15.7161673  47.4778553  38.6643833  15.9191673
  46.7888553  37.6083833  16.4591673  47.1518553  37.9543833  15.8561673
  46.9548553  36.1363833   6.9051673  46.2098553  35.8133833   7.2231673
  46.9568553  36.9623833   7.1851673  46.8448553  36.2103833   6.9931673
  49.8568553  38.4203833  18.4511673  49.8048553  38.0793833  17.6501673
  50.5938553  38.8873833  18.4291673  49.9578553  38.4393833  18.3291673
  49.3948553  42.0963833  14.6571673  50.0228553  41.5473833  14.4011673
  49.3338553  42.6613833  13.9951673  49.4788553  42.0993833  14.5211673
  38.5288553  43.3273833  11.9531673  38.2308553  43.9193833  12.5201673
  38.5838553  43.7693833  11.2041673  38.4928553  43.4803833  11.9261673
  36.5078553  42.2773833  15.3511673  35.7018553  41.9873833  15.5181673
  36.4188553  43.1453833  15.3571673  36.3758553  42.3623833  15.3761673
  45.8668553  32.4663833  14.3661673  46.6108553  32.9183833  14.3031673
  45.3008553  32.9363833  13.8971673  45.8938553  32.6033833  14.2881673
  41.0448553  39.7503833  11.4441673  41.5208553  40.1243833  12.0721673
  40.2218553  39.8843833  11.7031673  40.9938553  39.8253833  11.5751673
  37.7548553  35.3533833  14.1851673  37.9158553  34.6093833  14.6121673
  37.7098553  35.1043833  13.3501673  37.7718553  35.2063833  14.1251673
  40.3088553  47.1433833   6.6721673  40.8548553  47.8223833   6.7261673
  39.9588553  47.2253833   5.8771673  40.3378553  47.2563833   6.5621673
  47.1518553  30.4463833  12.0361673  46.8718553  31.2713833  11.9921673
  47.8678553  30.4993833  12.5321673  47.2168553  30.5763833  12.1031673
  39.5068553  31.1613833  14.0651673  40.2118553  31.4813833  13.6631673
  39.7478553  30.3543833  14.2921673  39.6458553  31.0893833  14.0391673
  38.4918553  45.3713833  10.0611673  37.8678553  45.9533833   9.8791673
  38.7398553  45.0853833   9.2751673  38.4358553  45.4153833   9.9181673
  42.8008553  42.0053833  17.0501673  43.5578553  42.2913833  16.7241673
  42.2538553  42.0573833  16.3721673  42.8318553  42.0553833  16.9011673
  46.7098553  44.5553833  15.5541673  47.0558553  44.8253833  16.3081673
  47.0038553  45.1373833  14.9741673  46.8048553  44.6813833  15.5801673
  36.0158553  36.2143833  10.1261673  36.4558553  36.1113833   9.3801673
  36.5608553  35.9013833  10.7311673  36.1608553  36.1533833  10.1051673
  44.0318553  35.3163833  15.7181673  43.3838553  35.7863833  16.0661673
  44.5968553  35.2273833  16.3771673  44.0198553  35.3723833  15.8671673
  43.7198553  36.8533833  12.0161673  44.0218553  37.2733833  12.7191673
  43.7558553  36.0133833  12.2481673  43.7698553  36.7913833  12.1541673
  41.1448553  47.0203833  15.9411673  41.6228553  46.4203833  15.5251673
  40.7938553  46.5773833  16.6061673  41.1638553  46.8663833  15.9781673
  46.2678553  36.3003833   4.2681673  46.4748553  36.0993833   5.0921673
  47.0238553  36.5683833   3.9261673  46.4098553  36.3103833   4.3391673
  39.5628553  31.1993833  10.1731673  38.7368553  31.0503833  10.4101673
  39.5228553  31.2343833   9.3021673  39.4348553  31.1823833  10.0791673
  47.2898553  32.3833833   5.7421673  46.5758553  31.9123833   5.9131673
  47.1278553  32.7243833   4.9561673  47.1608553  32.3643833   5.6511673
  47.7328553  40.3273833   4.1221673  48.2088553  39.5983833   4.0741673
  46.9118553  40.0413833   4.0461673  47.6818553  40.1773833   4.1031673
  41.2038553  42.2393833  14.9611673  40.4088553  42.1753833  15.3121673
  41.2748553  43.0863833  14.7661673  41.0968553  42.3543833  14.9841673
  32.1278553  31.5973833  16.2081673  31.9878553  32.3923833  15.8771673
  31.3418553  31.3543833  16.4971673  31.9908553  31.6793833  16.2021673
  37.0338553  48.4463833  10.2781673  37.0448553  48.5053833  11.1481673
  36.6088553  47.6993833  10.1281673  36.9728553  48.3443833  10.3841673
  35.1918553  34.3413833   3.4331673  35.3178553  34.0123833   2.6351673
  34.3798553  34.0923833   3.6321673  35.0908553  34.2563833   3.3451673
  43.9488553  41.4943833   6.4771673  44.0248553  41.8353833   7.2761673
  44.1178553  40.6473833   6.5981673  43.9848553  41.4193833   6.6131673
  41.4708553  40.7683833   6.0421673  41.1728553  40.4533833   6.7991673
  42.1658553  41.2413833   6.2771673  41.5298553  40.7913833   6.1891673
  41.6928553  44.8863833  14.0691673  42.3798553  44.7723833  14.5941673
  41.8268553  45.6773833  13.7251673  41.8138553  44.9863833  14.0961673
  49.8688553  37.4953833  15.8801673  49.0138553  37.3733833  16.0061673
  50.0218553  37.1003833  15.1171673  49.7648553  37.4183833  15.7861673
  44.3818553  38.1603833  14.4561673  44.1268553  37.4413833  14.8781673
  45.2028553  38.2763833  14.7261673  44.4658553  38.0713833  14.5581673
  33.7978553  47.9443833  15.7201673  33.1438553  47.3753833  15.8181673
  33.4228553  48.7173833  15.8711673  33.6458553  47.9743833  15.7571673
  42.3158553  39.3503833  17.6431673  42.6388553  40.0363833  17.2111673
  41.6118553  39.6733833  18.0451673  42.2588553  39.4993833  17.6381673
  45.3998553  47.7243833   8.5721673  44.9488553  48.3673833   8.9511673
  46.1078553  47.6453833   9.0771673  45.4378553  47.8073833   8.7031673
  42.1008553  42.8143833  11.5021673  41.4068553  43.2163833  11.8451673
  42.7778553  43.2473833  11.8411673  42.0978553  42.9373833  11.6031673
  47.4778553  45.4073833  18.0821673  48.2538553  45.0173833  18.1651673
  47.0088553  45.0713833  18.7371673  47.5228553  45.3003833  18.1911673
  35.1688553  36.3523833  13.8491673  35.5438553  36.9713833  13.3621673
  35.8428553  35.8783833  14.1341673  35.3238553  36.3743833  13.8191673
  32.9438553  34.8003833  13.1241673  33.0208553  34.6313833  12.2711673
  33.6898553  35.2063833  13.3211673  33.0648553  34.8353833  13.0271673
  48.5028553  37.4403833   3.5641673  48.6058553  37.3823833   2.7001673
  49.2438553  37.1083833   3.8821673  48.6278553  37.3833833   3.4831673
  35.4978553  32.2103833  15.5351673  35.4168553  31.3663833  15.7411673
  35.1838553  32.2543833  14.7221673  35.4398553  32.0923833  15.4451673
  42.4228553  44.4053833   4.6711673  42.2178553  45.2383833   4.5121673
  41.6478553  44.0233833   4.7931673  42.2778553  44.4723833   4.6661673
  47.6048553  37.5863833  12.9201673  47.6028553  36.7233833  13.0441673
  47.6718553  37.9103833  13.7271673  47.6148553  37.5063833  13.0571673
  32.3408553  40.0263833  13.3481673  32.6608553  40.2453833  12.5671673
  32.2408553  39.1613833  13.2931673  32.3728553  39.9313833  13.2251673
  43.4838553  32.3863833  16.7021673  43.5758553  33.0983833  17.1961673
  42.8468553  31.9413833  17.0991673  43.4028553  32.4253833  16.8341673
  42.4778553  32.5763833   7.5561673  41.7778553  33.0943833   7.5001673
  42.5158553  32.1963833   6.7721673  42.3798553  32.5973833   7.4321673
  46.0758553  33.0923833  10.3561673  46.9308553  33.1913833  10.5011673
  45.7068553  33.6453833  10.9211673  46.1478553  33.1893833  10.4611673
  37.1038553  39.3183833  14.7331673  36.7078553  40.0923833  14.8081673
  36.6978553  38.9453833  14.0571673  36.9858553  39.3773833  14.6441673
  46.3798553  38.3723833   8.8471673  47.0458553  38.9133833   9.0071673
  46.0348553  38.6833833   8.1081673  46.4268553  38.4983833   8.7621673
  46.6928553  46.4383833   4.6541673  46.5188553  45.7843833   5.2041673
  47.4058553  46.1673833   4.2311673  46.7728553  46.3013833   4.6731673
  37.5328553  32.2953833  12.1831673  36.6688553  32.3793833  12.2631673
  37.7528553  31.7813833  12.8521673  37.4378553  32.2323833  12.2941673
  49.5508553  30.9303833  13.5121673  49.4988553  30.8863833  14.3821673
  50.2378553  30.4273833  13.3221673  49.6448553  30.8503833  13.6121673
  41.6358553  33.0433833  10.5571673  40.8988553  32.5893833  10.6701673
  42.2068553  32.6413833  11.0801673  41.6108553  32.9163833  10.6511673
  44.3678553  43.8913833  12.3451673  44.5738553  44.1923833  13.1371673
  44.3068553  44.6133833  11.8601673  44.3888553  44.0423833  12.3901673
  43.9018553  48.1053833  16.5911673  43.1488553  48.0873833  16.1501673
  44.0698553  48.9573833  16.6751673  43.8158553  48.2283833  16.5381673
  39.1388553  37.3723833  15.7611673  38.8168553  36.7963833  15.1911673
  38.7798553  38.1273833  15.5151673  39.0388553  37.3983833  15.6411673
  49.1798553  42.5303833  11.8031673  49.1478553  41.6683833  11.6681673
  48.4868553  42.8323833  11.3691673  49.0728553  42.4473833  11.7191673
  37.5738553  47.7283833  16.0091673  37.6148553  47.8543833  16.8721673
  38.2248553  47.1683833  15.8531673  37.6758553  47.6643833  16.1141673
  47.2848553  45.7903833  10.6001673  47.8118553  45.7073833   9.9091673
  46.8938553  45.0123833  10.6541673  47.3048553  45.6633833  10.5061673
  34.7528553  32.3783833  12.8311673  34.4098553  31.6113833  12.5971673
  34.0578553  32.9023833  12.8951673  34.5998553  32.3423833  12.8061673
  43.7988553  31.2343833   9.8081673  44.4688553  31.7783833   9.9351673
  43.2958553  31.6583833   9.2351673  43.8238553  31.3773833   9.7421673
  35.1668553  46.1113833  17.3691673  35.7618553  46.5423833  17.8411673
  34.8028553  46.7353833  16.8801673  35.2008553  46.2673833  17.3661673
  43.1578553  37.0423833   7.3011673  43.7088553  36.4353833   7.6011673
  42.7328553  37.3053833   8.0161673  43.1768553  36.9913833   7.4501673
  33.4058553  35.6923833   6.7871673  33.0378553  35.9943833   7.5181673
  33.9398553  35.0633833   7.0711673  33.4298553  35.6443833   6.9371673
  33.0938553  44.1003833  14.2981673  32.5198553  44.5163833  14.8071673
  33.8268553  44.5653833  14.3931673  33.1178553  44.2303833  14.3871673
  45.1278553  38.8733833   3.8631673  45.1958553  38.0233833   4.0441673
  44.3048553  38.9593833   3.5851673  45.0158553  38.7603833   3.8491673
  34.8798553  47.3673833   3.0731673  34.7348553  47.5233833   2.2271673
  35.7458553  47.4463833   3.1511673  34.9868553  47.4023833   2.9601673
  39.0468553  39.7643833   2.8011673  39.1468553  39.9033833   1.9461673
  39.8648553  39.7043833   3.0971673  39.1818553  39.7753833   2.7181673
  48.4018553  40.2463833  17.0141673  49.0358553  40.0763833  17.5881673
  48.8188553  40.6493833  16.3621673  48.5568553  40.2813833  17.0031673
  44.2818553  44.0933833   2.6031673  44.0308553  43.9653833   3.4291673
  43.9648553  43.3983833   2.1821673  44.1978553  43.9723833   2.6631673
  49.0268553  34.8103833  17.7521673  48.8308553  35.4543833  18.3071673
  48.3048553  34.3203833  17.7441673  48.8918553  34.8333833  17.8331673
  48.9258553  35.7513833  10.7231673  48.0928553  36.0013833  10.6511673
  48.8698553  34.9113833  10.9521673  48.7948553  35.6643833  10.7461673
  38.1858553  32.7393833  15.9171673  38.4198553  32.1633833  15.3041673
  37.3438553  32.5583833  16.0581673  38.0958553  32.6273833  15.8471673
  45.8128553  40.3573833  18.3691673  46.6838553  40.3213833  18.3331673
  45.5938553  40.7773833  17.6371673  45.9098553  40.4133833  18.2561673
  35.5668553  46.1823833   9.5501673  35.4878553  45.3723833   9.2341673
  35.1228553  46.6693833   8.9781673  35.4898553  46.1343833   9.4191673
  41.1678553  42.3013833   2.0331673  41.8848553  41.9543833   1.6771673
  41.1338553  43.1013833   1.6851673  41.2688553  42.3683833   1.9291673
  33.1388553  48.4263833  13.1311673  33.6318553  48.3703833  13.8491673
  33.3268553  47.6933833  12.6961673  33.2398553  48.3093833  13.1731673
  42.5768553  12.4642753  81.3031313  42.3318553  12.9522753  80.6231313
  43.4398553  12.3912753  81.2031313  42.6678553  12.5252753  81.1881313
  42.3858553  19.3802753  85.9741313  41.8618553  19.9762753  86.3371313
  42.7828553  19.0122753  86.6581313  42.3668553  19.4142753  86.1291313
  32.2548553  23.5202753  81.4301313  31.8138553  23.6382753  82.1731313
  31.9718553  22.7452753  81.1451313  32.1478553  23.4232753  81.4981313
  48.5298553  26.8212753  78.9451313  49.2308553  26.3022753  78.9411313
  47.9428553  26.3762753  78.4761313  48.5468553  26.6782753  78.8751313
  31.9978553  17.3122753  77.9371313  31.2198553  17.4742753  77.5771313
  32.0368553  16.4412753  77.9591313  31.8888553  17.2072753  77.8871313
  35.1368553  22.5752753  76.6091313  34.7448553  22.2042753  75.9231313
  35.0568553  21.9772753  77.2381313  35.0668553  22.4322753  76.6001313
  45.0568553  20.4472753  82.6501313  45.1368553  20.4512753  81.7811313
  44.4728553  19.8152753  82.7991313  44.9818553  20.3542753  82.5441313
  34.7638553  24.2162753  80.5091313  35.3718553  24.0462753  81.1121313
  34.0128553  24.0762753  80.9301313  34.7428553  24.1702753  80.6601313
  39.0458553  13.5512753  80.4581313  38.9758553  14.2282753  79.9121313
  39.7868553  13.1632753  80.2091313  39.1448553  13.5942753  80.3401313
  33.6548553  27.3072753  76.5861313  34.1218553  27.3912753  75.8541313
  34.1098553  26.7292753  77.0551313  33.7908553  27.2342753  76.5471313
  32.1948553  26.2552753  87.6851313  32.3238553  25.9752753  88.5011313
  31.5848553  25.7142753  87.3761313  32.1238553  26.1342753  87.7601313
  33.6408553  20.7762753  81.8871313  33.1788553  20.3842753  81.2601313
  34.3408553  20.2632753  81.9791313  33.6758553  20.6432753  81.8081313
  38.1488553  16.3862753  87.2341313  38.8268553  16.4042753  86.6851313
  38.1038553  15.5502753  87.4791313  38.2418553  16.2652753  87.1891313
  38.7508553  26.9722753  90.0151313  38.8888553  27.7322753  89.6081313
  39.5418553  26.6072753  90.0421313  38.8878553  27.0312753  89.9591313
  35.6418553  18.8762753  81.9101313  36.4588553  18.6892753  82.1531313
  35.1648553  18.2622753  82.3061313  35.6918553  18.7582753  82.0051313
  39.8458553  24.8572753  84.5201313  40.1938553  24.0582753  84.5501313
  40.5108553  25.3612753  84.2651313  39.9958553  24.8132753  84.4871313
  39.9028553  24.3062753  80.7311313  40.2338553  23.6622753  81.2171313
  40.1428553  24.0952753  79.9201313  39.9868553  24.1802753  80.6831313
  41.8708553  18.4372753  92.0701313  41.0228553  18.3382753  91.8921313
  41.8998553  19.1822753  92.5241313  41.7498553  18.5332753  92.1111313
  36.2388553  13.9702753  81.1761313  35.9428553  14.4712753  80.5261313
  37.1058553  14.0482753  81.1191313  36.3228553  14.0562753  81.0721313
  46.4288553  11.3972753  91.1841313  46.2708553  12.1662753  90.8021313
  45.6568553  11.1772753  91.5281313  46.2908553  11.4782753  91.1791313
  39.2178553  13.1122753  83.3991313  39.2908553  13.9722753  83.5281313
  39.1798553  13.0372753  82.5311313  39.2228553  13.2282753  83.2901313
  43.8908553  16.0382753  75.6981313  43.4408553  16.7192753  76.0051313
  44.0048553  15.5342753  76.4011313  43.8418553  16.0642753  75.8471313
  32.0968553  18.5372753  84.9001313  31.8408553  19.3682753  84.8251313
  31.4328553  18.1542753  85.3171313  31.9608553  18.6032753  84.9511313
  32.0068553  28.2472753  82.8001313  31.4148553  28.8052753  82.4871313
  32.4328553  27.9782753  82.0881313  31.9828553  28.2892753  82.6491313
  37.8468553  26.0912753  80.2801313  37.2678553  25.8162753  80.8721313
  38.4708553  25.4822753  80.3051313  37.8538553  25.9612753  80.3711313
  43.9898553  28.3792753  77.8021313  44.7168553  28.8512753  77.9041313
  44.2188553  27.5852753  78.0821313  44.1318553  28.3322753  77.8591313
  42.1578553  28.7712753  79.7921313  42.3718553  29.2982753  80.4541313
  42.9248553  28.5972753  79.4131313  42.3028553  28.8232753  79.8341313
  35.1258553  13.3542753  85.3911313  34.6048553  12.7262753  85.0831313
  35.7168553  12.9172753  85.8621313  35.1368553  13.1962753  85.4151313
  33.5518553  26.9172753  80.7311313  34.2078553  26.3422753  80.7461313
  33.9408553  27.6662753  80.5101313  33.7068553  26.9422753  80.7011313
  49.2848553  16.0112753  81.9931313  48.9388553  16.6892753  82.4191313
  48.6488553  15.4132753  82.0091313  49.1398553  16.0232753  82.0581313
  44.5968553  28.7812753  88.0971313  45.3408553  29.2372753  88.0871313
  44.4758553  28.5672753  87.2601313  44.6888553  28.8172753  87.9721313
  34.3698553  25.4042753  84.2311313  34.7928553  25.0482753  83.5571313
  34.6938553  24.9822753  84.9231313  34.4798553  25.2892753  84.2341313
  37.6008553  28.2562753  83.5271313  38.4448553  28.3602753  83.3321313
  37.3038553  29.0742753  83.5951313  37.6818553  28.3922753  83.5081313
  41.4078553  17.6532753  81.6141313  41.6948553  17.4212753  80.8241313
  42.1398553  17.7322753  82.0831313  41.5578553  17.6302753  81.5671313
  42.1298553  17.9922753  76.7351313  42.4108553  18.7802753  76.9841313
  41.3538553  18.1572753  76.3721313  42.0568553  18.1332753  76.7181313
  46.1708553  29.9662753  78.2021313  46.8358553  29.8182753  77.6571313
  46.5308553  29.8832753  78.9921313  46.3228553  29.9322753  78.2381313
  36.5988553  29.4752753  89.2671313  36.8908553  29.4082753  90.0871313
  35.9728553  28.8702753  89.2221313  36.5498553  29.3762753  89.3821313
  48.9598553  14.3342753  87.3621313  49.7168553  14.4062753  86.9341313
  49.0228553  13.5612753  87.7611313  49.0808553  14.2312753  87.3571313
  31.5128553  15.6322753  91.2591313  31.5088553  16.2192753  91.9051313
  32.1068553  15.9442753  90.7021313  31.5998553  15.7652753  91.2721313
  43.8508553  25.9662753  91.8011313  43.8168553  26.3482753  92.5851313
  44.7048553  25.9242753  91.6301313  43.9718553  26.0162753  91.8921313
  40.9888553  26.1632753  76.5511313  40.8078553  26.7082753  77.2081313
  41.7548553  26.4532753  76.2501313  41.0748553  26.2872753  76.6041313
  44.4958553  14.0592753  77.6051313  45.0358553  13.3772753  77.6811313
  44.5578553  14.4572753  78.3791313  44.5848553  14.0172753  77.7311313
  32.4498553  15.2272753  80.1741313  32.3358553  14.3632753  80.2051313
  31.9748553  15.5212753  80.8441313  32.3628553  15.1432753  80.2771313
  34.5918553  27.6372753  88.3891313  33.8938553  27.1292753  88.5151313
  34.8518553  27.4322753  87.5811313  34.5268553  27.5322753  88.2881313
  41.7538553  16.4352753  78.9191313  41.2458553  15.7732753  78.6651313
  41.8058553  16.9392753  78.2091313  41.6868553  16.4122753  78.7771313
  42.3028553  29.1302753  89.2991313  43.0708553  29.0502753  88.8931313
  41.7198553  29.0092753  88.6611313  42.3298553  29.1002753  89.1451313
  41.7538553  13.3762753  78.8101313  41.2988553  12.9742753  78.1841313
  42.5268553  13.5312753  78.4351313  41.8008553  13.3402753  78.6621313
  48.5798553  29.7332753  82.2001313  48.1248553  30.4502753  82.4011313
  47.9658553  29.1622753  81.9581313  48.4218553  29.7552753  82.1941313
  40.3518553  15.7432753  83.3321313  40.4258553  16.3112753  82.6741313
  40.4728553  16.2352753  84.0421313  40.3798553  15.9002753  83.3401313
  45.5768553  25.5782753  81.7441313  46.2778553  25.0962753  81.9331313
  44.9168553  25.0092753  81.7891313  45.5828553  25.4232753  81.7781313
  35.9528553  26.4882753  90.9561313  36.7938553  26.5512753  90.7341313
  35.9158553  26.8852753  91.7321313  36.0718553  26.5562753  91.0381313
  34.9598553  11.5662753  81.6801313  35.4958553  12.2542753  81.6701313
  34.9628553  11.2922753  80.8521313  35.0388553  11.6272753  81.5561313
  37.9158553  21.9992753  85.7051313  38.0878553  21.7892753  86.5341313
  37.2608553  21.4652753  85.4891313  37.8448553  21.8892753  85.7961313
  44.1438553  15.9132753  89.2201313  44.0488553  16.2322753  90.0261313
  43.5508553  15.2742753  89.1821313  44.0418553  15.8652753  89.3341313
  38.6658553  21.9372753  88.2951313  38.7188553  22.7842753  88.4971313
  38.3808553  21.5672753  89.0321313  38.6318553  22.0072753  88.4331313
  44.8428553  22.6322753  87.4251313  44.3288553  22.2202753  87.9961313
  44.7168553  23.4762753  87.6061313  44.7488553  22.6962753  87.5361313
  45.3998553  11.8572753  82.0561313  45.4488553  11.5392753  82.8671313
  45.7228553  11.2132753  81.5631313  45.4548553  11.7152753  82.1031313
  47.8638553  16.0932753  90.3641313  48.6358553  15.8682753  90.7011313
  47.3888553  16.3102753  91.0641313  47.9078553  16.0922753  90.5171313
  35.4078553  15.3762753  83.3341313  35.6798553  14.9462753  82.6261313
  35.2318553  14.7402753  83.9051313  35.4218553  15.2192753  83.3141313
  48.0958553  23.0712753  77.5521313  48.2148553  22.7842753  78.3671313
  48.9028553  23.0922753  77.2221313  48.2318553  23.0322753  77.6241313
  35.2318553  22.8032753  82.8831313  36.0828553  22.7232753  82.7101313
  34.8748553  22.1212753  82.4711313  35.3048553  22.6902753  82.7961313
  33.9988553  29.5282753  84.1201313  33.3258553  29.0302753  83.8751313
  34.4018553  29.7132753  83.3691313  33.9588553  29.4822753  83.9731313
  33.5488553  16.4782753  86.4161313  34.3918553  16.6982753  86.3731313
  33.1598553  17.0512753  85.8851313  33.6158553  16.5952753  86.3311313
  50.3298553  27.5802753  91.8061313  49.6478553  27.8902753  91.3591313
  49.9608553  27.1222753  92.4511313  50.1738553  27.5582753  91.8351313
  45.9908553  19.6082753  77.1371313  45.7708553  20.3392753  76.7151313
  45.5428553  19.6592753  77.8841313  45.8918553  19.7232753  77.1851313
  37.5998553  22.8102753  81.1181313  38.3128553  23.3052753  81.2081313
  37.8218553  22.2432753  80.4921313  37.7378553  22.7992753  81.0391313
  50.1778553  14.4692753  76.5901313  49.5158553  13.9012753  76.6131313
  49.9848553  14.9812753  75.9101313  50.0518553  14.4612753  76.4931313
  31.7558553  24.4532753  84.4381313  31.0888553  24.9412753  84.7141313
  32.4358553  24.9982753  84.4671313  31.7578553  24.6052753  84.4831313
  50.5008553  18.8472753  89.1461313  50.7158553  18.0472753  88.8701313
  49.6508553  18.9072753  88.9571313  50.4068553  18.7382753  89.0771313
  31.8218553  21.1372753  79.5411313  31.6368553  20.2982753  79.6931313
  32.4808553  21.1012753  78.9711313  31.8918553  21.0082753  79.4791313
  48.1798553  14.0272753  78.8691313  48.9258553  13.6202753  79.0681313
  48.4428553  14.7422753  78.4441313  48.3288553  14.0732753  78.8361313
  42.1228553  26.5132753  83.4451313  41.5998553  27.1472753  83.1521313
  42.4328553  26.1492753  82.7161313  42.0908553  26.5532753  83.2941313
  31.9938553  25.3012753  79.1161313  32.5458553  25.8702753  79.4801313
  31.7618553  24.7862753  79.7811313  32.0408553  25.3092753  79.2681313
  36.1978553  24.3012753  86.2051313  36.6648553  24.5902753  86.8831313
  36.7698553  23.8232753  85.7511313  36.3518553  24.2732753  86.2381313
  44.6338553  16.3152753  83.9421313  44.9778553  16.4672753  84.7291313
  44.1808553  15.5772753  84.0551313  44.6178553  16.2282753  84.0751313
  31.8238553  23.7502753  76.7441313  32.5798553  23.3182753  76.8021313
  31.8388553  24.2822753  77.4351313  31.9378553  23.7652753  76.8551313
  32.7638553  21.9712753  84.7491313  33.1948553  21.8422753  84.0021313
  32.5588553  22.8192753  84.7231313  32.7968553  22.0772753  84.6351313
  39.1098553  15.5352753  78.3991313  39.1078553  15.4182753  77.5341313
  38.9288553  16.3832753  78.4911313  39.0828553  15.6432753  78.2851313
  48.1638553  27.9622753  89.8961313  47.4928553  28.4762753  90.1141313
  48.2268553  28.0622753  89.0321313  48.0738553  28.0532753  89.8011313
  36.8478553  25.4872753  83.0311313  36.9738553  26.3302753  83.2181313
  37.5158553  25.0882753  83.4271313  36.9658553  25.5532753  83.1171313
  35.4628553  18.3672753  78.0331313  35.3348553  17.9192753  78.7711313
  34.8808553  18.0252753  77.4811313  35.3578553  18.2502753  78.0611313
  35.6298553  20.1972753  84.6321313  34.8488553  20.1382753  84.2491313
  35.7018553  19.4452753  85.0691313  35.5248553  20.0782753  84.6401313
  36.0598553  19.9342753  88.1001313  36.0848553  19.2592753  87.5491313
  35.4138553  20.4302753  87.7881313  35.9688553  19.9072753  87.9731313
  45.9548553  17.6472753  86.4961313  45.2928553  17.9752753  86.9591313
  46.1418553  18.2812753  85.9271313  45.8848553  17.7892753  86.4801313
  40.1598553  28.7112753  87.4921313  39.8828553  28.0702753  86.9691313
  39.9518553  29.4372753  87.0541313  40.0888553  28.7242753  87.3501313
  42.5998553  13.5532753  89.9251313  42.7488553  12.7282753  89.6821313
  42.9788553  13.6082753  90.7091313  42.6778553  13.4392753  90.0051313
  44.1478553  15.6162753  80.0071313  44.6378553  16.3332753  79.9301313
  43.3578553  15.8772753  79.7441313  44.1038553  15.7602753  79.9571313
  45.4618553  23.4942753  91.9171313  45.9458553  24.2122753  92.0151313
  45.8558553  23.0672753  91.2661313  45.5918553  23.5372753  91.8351313
  40.7298553  17.0862753  85.7321313  41.2098553  17.7852753  85.9401313
  41.1028553  16.4392753  86.1831313  40.8558553  17.0942753  85.8291313
  42.9188553  20.2552753  78.0061313  42.9108553  20.9772753  77.5161313
  42.2798553  20.3902753  78.5831313  42.8238553  20.3822753  78.0191313
  47.8908553  24.1252753  81.9871313  48.2468553  23.7752753  82.7021313
  47.8828553  23.4642753  81.4171313  47.9428553  23.9752753  82.0081313
  43.9358553  27.1912753  85.8311313  43.3328553  26.8952753  85.2741313
  44.4808553  27.6432753  85.3221313  43.9268553  27.2142753  85.6731313
  43.9488553  24.0422753  85.2311313  43.1518553  24.2662753  85.5051313
  44.2068553  23.4482753  85.8161313  43.8688553  23.9872753  85.3581313
  37.8408553  28.8542753  79.6791313  37.6938553  28.0782753  80.0501313
  38.5298553  28.7072753  79.1641313  37.9208553  28.7172753  79.6581313
  37.5118553  12.5972753  77.6671313  37.6088553  12.4902753  78.5281313
  36.8038553  13.1032753  77.6021313  37.4218553  12.6562753  77.7851313
  40.1328553  28.3702753  78.0811313  40.7548553  28.5332753  78.6711313
  40.1688553  29.0612753  77.5491313  40.2298553  28.4962753  78.0901313
  47.2088553  22.0402753  90.0771313  47.2638553  22.1652753  89.2151313
  47.9618553  22.3602753  90.3791313  47.3278553  22.1052753  89.9941313
  34.6338553  20.9042753  78.9101313  34.9578553  20.1252753  78.6881313
  35.2798553  21.2722753  79.3651313  34.7768553  20.8432753  78.9441313
  42.9398553  21.8462753  89.6771313  42.7848553  22.4562753  90.2811313
  43.4738553  21.2882753  90.0831313  42.9958553  21.8542753  89.8261313
  31.6308553  12.5652753  79.8781313  31.7598553  11.8572753  79.3861313
  31.2638553  12.2472753  80.6031313  31.5958553  12.4132753  79.9131313
  41.3238553  20.2462753  80.3351313  41.3828553  20.8962753  80.9141313
  41.1348553  19.5502753  80.8261313  41.3048553  20.2392753  80.4931313
  46.5498553  24.5752753  86.2041313  46.0708553  24.8732753  85.5381313
  46.1938553  23.7992753  86.3821313  46.4268553  24.5042753  86.1321313
  35.8198553  14.7632753  76.8471313  35.3088553  14.8162753  76.1411313
  36.6038553  15.0032753  76.5511313  35.8598553  14.8062753  76.6991313
  40.5468553  22.2932753  84.7661313  39.6998553  22.0992753  84.8471313
  40.8708553  22.1282753  85.5591313  40.4688553  22.2402753  84.8951313
  37.2988553  29.0232753  75.6521313  37.7378553  28.3262753  75.9401313
  37.5058553  29.6472753  76.2251313  37.3948553  29.0122753  75.7791313
  34.3948553  21.9862753  87.0821313  35.1168553  22.4742753  87.0451313
  34.1248553  21.9562753  86.2531313  34.4618553  22.0542753  86.9541313
  37.6248553  17.1572753  83.8171313  38.4708553  16.9672753  83.9151313
  37.2548553  16.3802753  83.6791313  37.6948553  17.0142753  83.8111313
  50.2418553  28.7412753  78.1441313  50.9358553  28.2742753  77.8961313
  49.7028553  28.1432753  78.4811313  50.2648553  28.5832753  78.1571313
  32.4458553  18.4952753  80.4721313  32.9348553  18.2032753  81.1331313
  32.5748553  17.9022753  79.8451313  32.5368553  18.3642753  80.4771313
  47.4808553  21.5172753  87.3231313  47.4738553  20.7412753  87.7211313
  46.6398553  21.7512753  87.3161313  47.3558553  21.4372753  87.3811313
  36.9708553  19.9292753  75.9581313  36.3608553  19.5242753  76.4321313
  36.5848553  20.0472753  75.1851313  36.8238553  19.8862753  75.9141313
  33.7898553  23.0382753  91.3601313  33.3688553  22.5202753  90.7991313
  33.4378553  23.8242753  91.2171313  33.6758553  23.0782753  91.2561313
  48.7368553  21.5882753  84.7601313  48.4508553  21.9892753  85.4801313
  49.5968553  21.5262753  84.8871313  48.8218553  21.6382753  84.8851313
  38.4258553  18.3902753  78.6681313  38.6978553  19.2162753  78.7351313
  37.5628553  18.4652753  78.5721313  38.3388553  18.5232753  78.6631313
  31.9058553  14.3602753  85.2041313  31.9498553  14.7042753  84.4031313
  32.6608553  14.5972753  85.5711313  32.0238553  14.4462753  85.1401313
  49.8678553  27.2212753  85.2891313  50.1578553  27.4782753  84.5081313
  50.5628553  27.3172753  85.8081313  50.0138553  27.2732753  85.2501313
  47.1588553  19.4002753  91.7411313  47.4778553  20.1862753  91.9441313
  46.7888553  19.1302753  92.4841313  47.1518553  19.4762753  91.8811313
  46.4728553  25.8242753  77.2711313  46.8068553  25.0182753  77.3061313
  45.7178553  25.7522753  77.7011313  46.4108553  25.6942753  77.3401313
  46.9548553  17.6582753  82.9301313  46.2098553  17.3352753  83.2481313
  46.9568553  18.4842753  83.2101313  46.8448553  17.7322753  83.0181313
  49.3948553  23.6182753  90.6821313  50.0228553  23.0692753  90.4261313
  49.3338553  24.1832753  90.0201313  49.4788553  23.6212753  90.5461313
  43.8468553  23.6992753  76.6741313  44.5308553  23.1852753  76.5051313
  43.4298553  23.7452753  75.9091313  43.8858553  23.6302753  76.5361313
  38.5288553  24.8492753  87.9781313  38.2308553  25.4412753  88.5451313
  38.5838553  25.2912753  87.2291313  38.4928553  25.0022753  87.9511313
  36.5078553  23.7992753  91.3761313  35.7018553  23.5092753  91.5431313
  36.4188553  24.6672753  91.3821313  36.3758553  23.8842753  91.4011313
  45.8668553  13.9882753  90.3911313  46.6108553  14.4402753  90.3281313
  45.3008553  14.4582753  89.9221313  45.8938553  14.1252753  90.3131313
  41.0448553  21.2722753  87.4691313  41.5208553  21.6462753  88.0971313
  40.2218553  21.4062753  87.7281313  40.9938553  21.3472753  87.6001313
  37.7548553  16.8752753  90.2101313  37.9158553  16.1312753  90.6371313
  37.7098553  16.6262753  89.3751313  37.7718553  16.7282753  90.1501313
  40.3088553  28.6652753  82.6971313  40.8548553  29.3442753  82.7511313
  39.9588553  28.7472753  81.9021313  40.3378553  28.7782753  82.5871313
  47.1518553  11.9682753  88.0611313  46.8718553  12.7932753  88.0171313
  47.8678553  12.0212753  88.5571313  47.2168553  12.0982753  88.1281313
  39.5068553  12.6832753  90.0901313  40.2118553  13.0032753  89.6881313
  39.7478553  11.8762753  90.3171313  39.6458553  12.6112753  90.0641313
  38.4918553  26.8932753  86.0861313  37.8678553  27.4752753  85.9041313
  38.7398553  26.6072753  85.3001313  38.4358553  26.9372753  85.9431313
  46.7098553  26.0772753  91.5791313  47.0558553  26.3472753  92.3331313
  47.0038553  26.6592753  90.9991313  46.8048553  26.2032753  91.6051313
  48.5728553  18.2232753  76.9181313  48.9508553  18.9002753  76.5181313
  47.7308553  18.4472753  76.9491313  48.5038553  18.3562753  76.8631313
  40.0858553  21.6692753  76.0011313  39.2808553  21.4922753  75.7161313
  40.0528553  22.5202753  76.1931313  39.9618553  21.7682753  75.9881313
  36.0158553  17.7362753  86.1511313  36.4558553  17.6332753  85.4051313
  36.5608553  17.4232753  86.7561313  36.1608553  17.6752753  86.1301313
  44.0318553  16.8382753  91.7431313  43.3838553  17.3082753  92.0911313
  44.5968553  16.7492753  92.4021313  44.0198553  16.8942753  91.8921313
  43.7198553  18.3752753  88.0411313  44.0218553  18.7952753  88.7441313
  43.7558553  17.5352753  88.2731313  43.7698553  18.3132753  88.1791313
  41.1448553  28.5422753  91.9661313  41.6228553  27.9422753  91.5501313
  40.7938553  28.0992753  92.6311313  41.1638553  28.3882753  92.0031313
  46.2678553  17.8222753  80.2931313  46.4748553  17.6212753  81.1171313
  47.0238553  18.0902753  79.9511313  46.4098553  17.8322753  80.3641313
  39.5628553  12.7212753  86.1981313  38.7368553  12.5722753  86.4351313
  39.5228553  12.7562753  85.3271313  39.4348553  12.7042753  86.1041313
  47.2898553  13.9052753  81.7671313  46.5758553  13.4342753  81.9381313
  47.1278553  14.2462753  80.9811313  47.1608553  13.8862753  81.6761313
  47.7328553  21.8492753  80.1471313  48.2088553  21.1202753  80.0991313
  46.9118553  21.5632753  80.0711313  47.6818553  21.6992753  80.1281313
  41.2038553  23.7612753  90.9861313  40.4088553  23.6972753  91.3371313
  41.2748553  24.6082753  90.7911313  41.0968553  23.8762753  91.0091313
  32.1278553  13.1192753  92.2331313  31.9878553  13.9142753  91.9021313
  31.3418553  12.8762753  92.5221313  31.9908553  13.2012753  92.2271313
  37.0338553  29.9682753  86.3031313  37.0448553  30.0272753  87.1731313
  36.6088553  29.2212753  86.1531313  36.9728553  29.8662753  86.4091313
  35.1918553  15.8632753  79.4581313  35.3178553  15.5342753  78.6601313
  34.3798553  15.6142753  79.6571313  35.0908553  15.7782753  79.3701313
  43.9488553  23.0162753  82.5021313  44.0248553  23.3572753  83.3011313
  44.1178553  22.1692753  82.6231313  43.9848553  22.9412753  82.6381313
  41.4708553  22.2902753  82.0671313  41.1728553  21.9752753  82.8241313
  42.1658553  22.7632753  82.3021313  41.5298553  22.3132753  82.2141313
  41.6928553  26.4082753  90.0941313  42.3798553  26.2942753  90.6191313
  41.8268553  27.1992753  89.7501313  41.8138553  26.5082753  90.1211313
  49.8688553  19.0172753  91.9051313  49.0138553  18.8952753  92.0311313
  50.0218553  18.6222753  91.1421313  49.7648553  18.9402753  91.8111313
  44.3818553  19.6822753  90.4811313  44.1268553  18.9632753  90.9031313
  45.2028553  19.7982753  90.7511313  44.4658553  19.5932753  90.5831313
  33.7978553  29.4662753  91.7451313  33.1438553  28.8972753  91.8431313
  33.4228553  30.2392753  91.8961313  33.6458553  29.4962753  91.7821313
  45.3998553  29.2462753  84.5971313  44.9488553  29.8892753  84.9761313
  46.1078553  29.1672753  85.1021313  45.4378553  29.3292753  84.7281313
  42.1008553  24.3362753  87.5271313  41.4068553  24.7382753  87.8701313
  42.7778553  24.7692753  87.8661313  42.0978553  24.4592753  87.6281313
  35.1688553  17.8742753  89.8741313  35.5438553  18.4932753  89.3871313
  35.8428553  17.4002753  90.1591313  35.3238553  17.8962753  89.8441313
  32.9438553  16.3222753  89.1491313  33.0208553  16.1532753  88.2961313
  33.6898553  16.7282753  89.3461313  33.0648553  16.3572753  89.0521313
  48.5028553  18.9622753  79.5891313  48.6058553  18.9042753  78.7251313
  49.2438553  18.6302753  79.9071313  48.6278553  18.9052753  79.5081313
  35.4978553  13.7322753  91.5601313  35.4168553  12.8882753  91.7661313
  35.1838553  13.7762753  90.7471313  35.4398553  13.6142753  91.4701313
  42.4228553  25.9272753  80.6961313  42.2178553  26.7602753  80.5371313
  41.6478553  25.5452753  80.8181313  42.2778553  25.9942753  80.6911313
  47.6048553  19.1082753  88.9451313  47.6028553  18.2452753  89.0691313
  47.6718553  19.4322753  89.7521313  47.6148553  19.0282753  89.0821313
  32.3408553  21.5482753  89.3731313  32.6608553  21.7672753  88.5921313
  32.2408553  20.6832753  89.3181313  32.3728553  21.4532753  89.2501313
  33.7968553  17.4842753  75.9911313  33.1248553  17.4982753  76.5471313
  33.8918553  16.6362753  75.8071313  33.7118553  17.3612753  76.0461313
  42.4778553  14.0982753  83.5811313  41.7778553  14.6162753  83.5251313
  42.5158553  13.7182753  82.7971313  42.3798553  14.1192753  83.4571313
  37.7848553  26.1892753  77.1051313  38.2258553  26.2692753  77.8531313
  36.9798553  25.9732753  77.3631313  37.7308553  26.1692753  77.2541313
  46.0758553  14.6142753  86.3811313  46.9308553  14.7132753  86.5261313
  45.7068553  15.1672753  86.9461313  46.1478553  14.7112753  86.4861313
  37.1038553  20.8402753  90.7581313  36.7078553  21.6142753  90.8331313
  36.6978553  20.4672753  90.0821313  36.9858553  20.8992753  90.6691313
  46.3798553  19.8942753  84.8721313  47.0458553  20.4352753  85.0321313
  46.0348553  20.2052753  84.1331313  46.4268553  20.0202753  84.7871313
  46.6928553  27.9602753  80.6791313  46.5188553  27.3062753  81.2291313
  47.4058553  27.6892753  80.2561313  46.7728553  27.8232753  80.6981313
  35.1138553  25.2592753  77.7061313  34.8698553  24.9522753  78.4861313
  35.0808553  24.5562753  77.1901313  35.0728553  25.1102753  77.7451313
  37.9328553  23.5042753  76.4491313  37.1148553  23.2362753  76.5891313
  37.9048553  24.3562753  76.6341313  37.8078553  23.5912753  76.4971313
  37.5328553  13.8172753  88.2081313  36.6688553  13.9012753  88.2881313
  37.7528553  13.3032753  88.8771313  37.4378553  13.7542753  88.3191313
  49.5508553  12.4522753  89.5371313  49.4988553  12.4082753  90.4071313
  50.2378553  11.9492753  89.3471313  49.6448553  12.3722753  89.6371313
  41.6358553  14.5652753  86.5821313  40.8988553  14.1112753  86.6951313
  42.2068553  14.1632753  87.1051313  41.6108553  14.4382753  86.6761313
  44.3678553  25.4132753  88.3701313  44.5738553  25.7142753  89.1621313
  44.3068553  26.1352753  87.8851313  44.3888553  25.5642753  88.4151313
  39.1388553  18.8942753  91.7861313  38.8168553  18.3182753  91.2161313
  38.7798553  19.6492753  91.5401313  39.0388553  18.9202753  91.6661313
  39.9348553  12.1462753  76.4131313  40.0128553  12.3932753  75.5801313
  39.1918553  12.5232753  76.6711313  39.8368553  12.2382753  76.3281313
  49.1798553  24.0522753  87.8281313  49.1478553  23.1902753  87.6931313
  48.4868553  24.3542753  87.3941313  49.0728553  23.9692753  87.7441313
  47.2848553  27.3122753  86.6251313  47.8118553  27.2292753  85.9341313
  46.8938553  26.5342753  86.6791313  47.3048553  27.1852753  86.5311313
  34.7528553  13.9002753  88.8561313  34.4098553  13.1332753  88.6221313
  34.0578553  14.4242753  88.9201313  34.5998553  13.8642753  88.8311313
  43.7988553  12.7562753  85.8331313  44.4688553  13.3002753  85.9601313
  43.2958553  13.1802753  85.2601313  43.8238553  12.8992753  85.7671313
  43.1578553  18.5642753  83.3261313  43.7088553  17.9572753  83.6261313
  42.7328553  18.8272753  84.0411313  43.1768553  18.5132753  83.4751313
  33.4058553  17.2142753  82.8121313  33.0378553  17.5162753  83.5431313
  33.9398553  16.5852753  83.0961313  33.4298553  17.1662753  82.9621313
  33.0938553  25.6222753  90.3231313  32.5198553  26.0382753  90.8321313
  33.8268553  26.0872753  90.4181313  33.1178553  25.7522753  90.4121313
  45.1278553  20.3952753  79.8881313  45.1958553  19.5452753  80.0691313
  44.3048553  20.4812753  79.6101313  45.0158553  20.2822753  79.8741313
  34.8798553  28.8892753  79.0981313  34.7348553  29.0452753  78.2521313
  35.7458553  28.9682753  79.1761313  34.9868553  28.9242753  78.9851313
  39.0468553  21.2862753  78.8261313  39.1468553  21.4252753  77.9711313
  39.8648553  21.2262753  79.1221313  39.1818553  21.2972753  78.7431313
  48.2068553  29.3502753  76.3061313  48.8438553  29.2162753  76.8871313
  47.8658553  28.5562753  76.1891313  48.2508553  29.2132753  76.3741313
  44.2818553  25.6152753  78.6281313  44.0308553  25.4872753  79.4541313
  43.9648553  24.9202753  78.2071313  44.1978553  25.4942753  78.6881313
  48.9258553  17.2732753  86.7481313  48.0928553  17.5232753  86.6761313
  48.8698553  16.4332753  86.9771313  48.7948553  17.1862753  86.7711313
  38.1858553  14.2612753  91.9421313  38.4198553  13.6852753  91.3291313
  37.3438553  14.0802753  92.0831313  38.0958553  14.1492753  91.8721313
  35.5668553  27.7042753  85.5751313  35.4878553  26.8942753  85.2591313
  35.1228553  28.1912753  85.0031313  35.4898553  27.6562753  85.4441313
  41.1678553  23.8232753  78.0581313  41.8848553  23.4762753  77.7021313
  41.1338553  24.6232753  77.7101313  41.2688553  23.8902753  77.9541313
  33.1388553  29.9482753  89.1561313  33.6318553  29.8922753  89.8741313
  33.3268553  29.2152753  88.7211313  33.2398553  29.8312753  89.1981313
  42.5768553  12.4642753  62.2968903  42.3318553  12.9522753  61.6168903
  43.4398553  12.3912753  62.1968903  42.6678553  12.5252753  62.1818903
  42.3858553  19.3802753  66.9678903  41.8618553  19.9762753  67.3308903
  42.7828553  19.0122753  67.6518903  42.3668553  19.4142753  67.1228903
  32.2548553  23.5202753  62.4238903  31.8138553  23.6382753  63.1668903
  31.9718553  22.7452753  62.1388903  32.1478553  23.4232753  62.4918903
  48.5298553  26.8212753  59.9388903  49.2308553  26.3022753  59.9348903
  47.9428553  26.3762753  59.4698903  48.5468553  26.6782753  59.8688903
  31.9978553  17.3122753  58.9308903  31.2198553  17.4742753  58.5708903
  32.0368553  16.4412753  58.9528903  31.8888553  17.2072753  58.8808903
  35.1368553  22.5752753  57.6028903  34.7448553  22.2042753  56.9168903
  35.0568553  21.9772753  58.2318903  35.0668553  22.4322753  57.5938903
  45.0568553  20.4472753  63.6438903  45.1368553  20.4512753  62.7748903
  44.4728553  19.8152753  63.7928903  44.9818553  20.3542753  63.5378903
  34.7638553  24.2162753  61.5028903  35.3718553  24.0462753  62.1058903
  34.0128553  24.0762753  61.9238903  34.7428553  24.1702753  61.6538903
  39.0458553  13.5512753  61.4518903  38.9758553  14.2282753  60.9058903
  39.7868553  13.1632753  61.2028903  39.1448553  13.5942753  61.3338903
  33.6548553  27.3072753  57.5798903  34.1218553  27.3912753  56.8478903
  34.1098553  26.7292753  58.0488903  33.7908553  27.2342753  57.5408903
  32.1948553  26.2552753  68.6788903  32.3238553  25.9752753  69.4948903
  31.5848553  25.7142753  68.3698903  32.1238553  26.1342753  68.7538903
  38.7688553  23.7802753  73.7458903  38.5328553  23.7772753  74.5858903
  38.0208553  23.6322753  73.3218903  38.6228553  23.7572753  73.8068903
  33.6408553  20.7762753  62.8808903  33.1788553  20.3842753  62.2538903
  34.3408553  20.2632753  62.9728903  33.6758553  20.6432753  62.8018903
  38.1488553  16.3862753  68.2278903  38.8268553  16.4042753  67.6788903
  38.1038553  15.5502753  68.4728903  38.2418553  16.2652753  68.1828903
  38.7508553  26.9722753  71.0088903  38.8888553  27.7322753  70.6018903
  39.5418553  26.6072753  71.0358903  38.8878553  27.0312753  70.9528903
  35.6418553  18.8762753  62.9038903  36.4588553  18.6892753  63.1468903
  35.1648553  18.2622753  63.2998903  35.6918553  18.7582753  62.9988903
  39.8458553  24.8572753  65.5138903  40.1938553  24.0582753  65.5438903
  40.5108553  25.3612753  65.2588903  39.9958553  24.8132753  65.4808903
  39.9028553  24.3062753  61.7248903  40.2338553  23.6622753  62.2108903
  40.1428553  24.0952753  60.9138903  39.9868553  24.1802753  61.6768903
  41.8708553  18.4372753  73.0638903  41.0228553  18.3382753  72.8858903
  41.8998553  19.1822753  73.5178903  41.7498553  18.5332753  73.1048903
  36.2388553  13.9702753  62.1698903  35.9428553  14.4712753  61.5198903
  37.1058553  14.0482753  62.1128903  36.3228553  14.0562753  62.0658903
  46.4288553  11.3972753  72.1778903  46.2708553  12.1662753  71.7958903
  45.6568553  11.1772753  72.5218903  46.2908553  11.4782753  72.1728903
  39.2178553  13.1122753  64.3928903  39.2908553  13.9722753  64.5218903
  39.1798553  13.0372753  63.5248903  39.2228553  13.2282753  64.2838903
  43.8908553  16.0382753  56.6918903  43.4408553  16.7192753  56.9988903
  44.0048553  15.5342753  57.3948903  43.8418553  16.0642753  56.8408903
  32.0968553  18.5372753  65.8938903  31.8408553  19.3682753  65.8188903
  31.4328553  18.1542753  66.3108903  31.9608553  18.6032753  65.9448903
  32.0068553  28.2472753  63.7938903  31.4148553  28.8052753  63.4808903
  32.4328553  27.9782753  63.0818903  31.9828553  28.2892753  63.6428903
  37.8468553  26.0912753  61.2738903  37.2678553  25.8162753  61.8658903
  38.4708553  25.4822753  61.2988903  37.8538553  25.9612753  61.3648903
  43.9898553  28.3792753  58.7958903  44.7168553  28.8512753  58.8978903
  44.2188553  27.5852753  59.0758903  44.1318553  28.3322753  58.8528903
  42.1578553  28.7712753  60.7858903  42.3718553  29.2982753  61.4478903
  42.9248553  28.5972753  60.4068903  42.3028553  28.8232753  60.8278903
  35.1258553  13.3542753  66.3848903  34.6048553  12.7262753  66.0768903
  35.7168553  12.9172753  66.8558903  35.1368553  13.1962753  66.4088903
  38.4318553  15.4872753  75.6828903  38.5488553  15.0332753  74.9468903
  38.7198553  16.2852753  75.4798903  38.4918553  15.5382753  75.5438903
  33.5518553  26.9172753  61.7248903  34.2078553  26.3422753  61.7398903
  33.9408553  27.6662753  61.5038903  33.7068553  26.9422753  61.6948903
  49.2848553  16.0112753  62.9868903  48.9388553  16.6892753  63.4128903
  48.6488553  15.4132753  63.0028903  49.1398553  16.0232753  63.0518903
  44.5968553  28.7812753  69.0908903  45.3408553  29.2372753  69.0808903
  44.4758553  28.5672753  68.2538903  44.6888553  28.8172753  68.9658903
  34.1648553  15.0842753  74.6668903  33.3868553  14.6942753  74.5948903
  34.6558553  14.6722753  74.0758903  34.1218553  14.9652753  74.5688903
  34.3698553  25.4042753  65.2248903  34.7928553  25.0482753  64.5508903
  34.6938553  24.9822753  65.9168903  34.4798553  25.2892753  65.2278903
  37.6008553  28.2562753  64.5208903  38.4448553  28.3602753  64.3258903
  37.3038553  29.0742753  64.5888903  37.6818553  28.3922753  64.5018903
  40.8138553  12.7272753  73.8348903  40.9918553  11.9182753  73.5598903
  40.6708553  13.1682753  73.0958903  40.8188553  12.6732753  73.6848903
  41.4078553  17.6532753  62.6078903  41.6948553  17.4212753  61.8178903
  42.1398553  17.7322753  63.0768903  41.5578553  17.6302753  62.5608903
  42.1298553  17.9922753  57.7288903  42.4108553  18.7802753  57.9778903
  41.3538553  18.1572753  57.3658903  42.0568553  18.1332753  57.7118903
  46.1708553  29.9662753  59.1958903  46.8358553  29.8182753  58.6508903
  46.5308553  29.8832753  59.9858903  46.3228553  29.9322753  59.2318903
  36.5988553  29.4752753  70.2608903  36.8908553  29.4082753  71.0808903
  35.9728553  28.8702753  70.2158903  36.5498553  29.3762753  70.3758903
  48.9598553  14.3342753  68.3558903  49.7168553  14.4062753  67.9278903
  49.0228553  13.5612753  68.7548903  49.0808553  14.2312753  68.3508903
  31.5128553  15.6322753  72.2528903  31.5088553  16.2192753  72.8988903
  32.1068553  15.9442753  71.6958903  31.5998553  15.7652753  72.2658903
  43.8508553  25.9662753  72.7948903  43.8168553  26.3482753  73.5788903
  44.7048553  25.9242753  72.6238903  43.9718553  26.0162753  72.8858903
  40.9888553  26.1632753  57.5448903  40.8078553  26.7082753  58.2018903
  41.7548553  26.4532753  57.2438903  41.0748553  26.2872753  57.5978903
  44.4958553  14.0592753  58.5988903  45.0358553  13.3772753  58.6748903
  44.5578553  14.4572753  59.3728903  44.5848553  14.0172753  58.7248903
  32.4498553  15.2272753  61.1678903  32.3358553  14.3632753  61.1988903
  31.9748553  15.5212753  61.8378903  32.3628553  15.1432753  61.2708903
  34.5918553  27.6372753  69.3828903  33.8938553  27.1292753  69.5088903
  34.8518553  27.4322753  68.5748903  34.5268553  27.5322753  69.2818903
  41.7538553  16.4352753  59.9128903  41.2458553  15.7732753  59.6588903
  41.8058553  16.9392753  59.2028903  41.6868553  16.4122753  59.7708903
  42.3028553  29.1302753  70.2928903  43.0708553  29.0502753  69.8868903
  41.7198553  29.0092753  69.6548903  42.3298553  29.1002753  70.1388903
  41.7538553  13.3762753  59.8038903  41.2988553  12.9742753  59.1778903
  42.5268553  13.5312753  59.4288903  41.8008553  13.3402753  59.6558903
  48.5798553  29.7332753  63.1938903  48.1248553  30.4502753  63.3948903
  47.9658553  29.1622753  62.9518903  48.4218553  29.7552753  63.1878903
  40.3518553  15.7432753  64.3258903  40.4258553  16.3112753  63.6678903
  40.4728553  16.2352753  65.0358903  40.3798553  15.9002753  64.3338903
  45.5768553  25.5782753  62.7378903  46.2778553  25.0962753  62.9268903
  44.9168553  25.0092753  62.7828903  45.5828553  25.4232753  62.7718903
  35.9528553  26.4882753  71.9498903  36.7938553  26.5512753  71.7278903
  35.9158553  26.8852753  72.7258903  36.0718553  26.5562753  72.0318903
  34.9598553  11.5662753  62.6738903  35.4958553  12.2542753  62.6638903
  34.9628553  11.2922753  61.8458903  35.0388553  11.6272753  62.5498903
  37.9158553  21.9992753  66.6988903  38.0878553  21.7892753  67.5278903
  37.2608553  21.4652753  66.4828903  37.8448553  21.8892753  66.7898903
  44.1438553  15.9132753  70.2138903  44.0488553  16.2322753  71.0198903
  43.5508553  15.2742753  70.1758903  44.0418553  15.8652753  70.3278903
  38.6658553  21.9372753  69.2888903  38.7188553  22.7842753  69.4908903
  38.3808553  21.5672753  70.0258903  38.6318553  22.0072753  69.4268903
  44.8428553  22.6322753  68.4188903  44.3288553  22.2202753  68.9898903
  44.7168553  23.4762753  68.5998903  44.7488553  22.6962753  68.5298903
  45.3998553  11.8572753  63.0498903  45.4488553  11.5392753  63.8608903
  45.7228553  11.2132753  62.5568903  45.4548553  11.7152753  63.0968903
  31.4868553  26.3082753  75.4998903  32.2428553  26.6572753  75.7578903
  31.6638553  25.4552753  75.4428903  31.6248553  26.2332753  75.5298903
  47.8638553  16.0932753  71.3578903  48.6358553  15.8682753  71.6948903
  47.3888553  16.3102753  72.0578903  47.9078553  16.0922753  71.5108903
  35.4078553  15.3762753  64.3278903  35.6798553  14.9462753  63.6198903
  35.2318553  14.7402753  64.8988903  35.4218553  15.2192753  64.3078903
  48.0958553  23.0712753  58.5458903  48.2148553  22.7842753  59.3608903
  48.9028553  23.0922753  58.2158903  48.2318553  23.0322753  58.6178903
  35.2318553  22.8032753  63.8768903  36.0828553  22.7232753  63.7038903
  34.8748553  22.1212753  63.4648903  35.3048553  22.6902753  63.7898903
  33.9988553  29.5282753  65.1138903  33.3258553  29.0302753  64.8688903
  34.4018553  29.7132753  64.3628903  33.9588553  29.4822753  64.9668903
  33.5488553  16.4782753  67.4098903  34.3918553  16.6982753  67.3668903
  33.1598553  17.0512753  66.8788903  33.6158553  16.5952753  67.3248903
  50.3298553  27.5802753  72.7998903  49.6478553  27.8902753  72.3528903
  49.9608553  27.1222753  73.4448903  50.1738553  27.5582753  72.8288903
  45.9908553  19.6082753  58.1308903  45.7708553  20.3392753  57.7088903
  45.5428553  19.6592753  58.8778903  45.8918553  19.7232753  58.1788903
  37.5998553  22.8102753  62.1118903  38.3128553  23.3052753  62.2018903
  37.8218553  22.2432753  61.4858903  37.7378553  22.7992753  62.0328903
  50.1778553  14.4692753  57.5838903  49.5158553  13.9012753  57.6068903
  49.9848553  14.9812753  56.9038903  50.0518553  14.4612753  57.4868903
  31.7558553  24.4532753  65.4318903  31.0888553  24.9412753  65.7078903
  32.4358553  24.9982753  65.4608903  31.7578553  24.6052753  65.4768903
  39.4028553  18.1632753  75.5278903  38.9188553  18.7402753  75.9698903
  39.3748553  18.4582753  74.7068903  39.3268553  18.2922753  75.4718903
  50.5008553  18.8472753  70.1398903  50.7158553  18.0472753  69.8638903
  49.6508553  18.9072753  69.9508903  50.4068553  18.7382753  70.0708903
  31.8218553  21.1372753  60.5348903  31.6368553  20.2982753  60.6868903
  32.4808553  21.1012753  59.9648903  31.8918553  21.0082753  60.4728903
  48.1798553  14.0272753  59.8628903  48.9258553  13.6202753  60.0618903
  48.4428553  14.7422753  59.4378903  48.3288553  14.0732753  59.8298903
  42.1228553  26.5132753  64.4388903  41.5998553  27.1472753  64.1458903
  42.4328553  26.1492753  63.7098903  42.0908553  26.5532753  64.2878903
  31.9938553  25.3012753  60.1098903  32.5458553  25.8702753  60.4738903
  31.7618553  24.7862753  60.7748903  32.0408553  25.3092753  60.2618903
  36.1978553  24.3012753  67.1988903  36.6648553  24.5902753  67.8768903
  36.7698553  23.8232753  66.7448903  36.3518553  24.2732753  67.2318903
  44.6338553  16.3152753  64.9358903  44.9778553  16.4672753  65.7228903
  44.1808553  15.5772753  65.0488903  44.6178553  16.2282753  65.0688903
  31.8238553  23.7502753  57.7378903  32.5798553  23.3182753  57.7958903
  31.8388553  24.2822753  58.4288903  31.9378553  23.7652753  57.8488903
  32.7638553  21.9712753  65.7428903  33.1948553  21.8422753  64.9958903
  32.5588553  22.8192753  65.7168903  32.7968553  22.0772753  65.6288903
  39.1098553  15.5352753  59.3928903  39.1078553  15.4182753  58.5278903
  38.9288553  16.3832753  59.4848903  39.0828553  15.6432753  59.2788903
  48.1638553  27.9622753  70.8898903  47.4928553  28.4762753  71.1078903
  48.2268553  28.0622753  70.0258903  48.0738553  28.0532753  70.7948903
  36.8478553  25.4872753  64.0248903  36.9738553  26.3302753  64.2118903
  37.5158553  25.0882753  64.4208903  36.9658553  25.5532753  64.1108903
  34.9778553  18.9702753  73.8868903  34.4418553  18.4642753  74.3548903
  34.9978553  18.5802753  73.1068903  34.9008553  18.8372753  73.8408903
  35.4628553  18.3672753  59.0268903  35.3348553  17.9192753  59.7648903
  34.8808553  18.0252753  58.4748903  35.3578553  18.2502753  59.0548903
  35.6298553  20.1972753  65.6258903  34.8488553  20.1382753  65.2428903
  35.7018553  19.4452753  66.0628903  35.5248553  20.0782753  65.6338903
  36.0598553  19.9342753  69.0938903  36.0848553  19.2592753  68.5428903
  35.4138553  20.4302753  68.7818903  35.9688553  19.9072753  68.9668903
  45.9548553  17.6472753  67.4898903  45.2928553  17.9752753  67.9528903
  46.1418553  18.2812753  66.9208903  45.8848553  17.7892753  67.4738903
  40.1598553  28.7112753  68.4858903  39.8828553  28.0702753  67.9628903
  39.9518553  29.4372753  68.0478903  40.0888553  28.7242753  68.3438903
  42.5998553  13.5532753  70.9188903  42.7488553  12.7282753  70.6758903
  42.9788553  13.6082753  71.7028903  42.6778553  13.4392753  70.9988903
  44.1478553  15.6162753  61.0008903  44.6378553  16.3332753  60.9238903
  43.3578553  15.8772753  60.7378903  44.1038553  15.7602753  60.9508903
  33.8588553  21.2892753  74.6528903  33.8218553  21.7902753  73.9388903
  34.1898553  20.5372753  74.3578903  33.9018553  21.2512753  74.5038903
  45.4618553  23.4942753  72.9108903  45.9458553  24.2122753  73.0088903
  45.8558553  23.0672753  72.2598903  45.5918553  23.5372753  72.8288903
  39.7578553  26.3392753  74.0878903  40.1118553  26.1612753  74.8648903
  39.3218553  25.6102753  73.8888903  39.7458553  26.2052753  74.1738903
  40.7298553  17.0862753  66.7258903  41.2098553  17.7852753  66.9338903
  41.1028553  16.4392753  67.1768903  40.8558553  17.0942753  66.8228903
  42.9188553  20.2552753  58.9998903  42.9108553  20.9772753  58.5098903
  42.2798553  20.3902753  59.5768903  42.8238553  20.3822753  59.0128903
  47.8908553  24.1252753  62.9808903  48.2468553  23.7752753  63.6958903
  47.8828553  23.4642753  62.4108903  47.9428553  23.9752753  63.0018903
  43.9358553  27.1912753  66.8248903  43.3328553  26.8952753  66.2678903
  44.4808553  27.6432753  66.3158903  43.9268553  27.2142753  66.6668903
  43.9488553  24.0422753  66.2248903  43.1518553  24.2662753  66.4988903
  44.2068553  23.4482753  66.8098903  43.8688553  23.9872753  66.3518903
  37.8408553  28.8542753  60.6728903  37.6938553  28.0782753  61.0438903
  38.5298553  28.7072753  60.1578903  37.9208553  28.7172753  60.6518903
  37.5118553  12.5972753  58.6608903  37.6088553  12.4902753  59.5218903
  36.8038553  13.1032753  58.5958903  37.4218553  12.6562753  58.7788903
  40.1328553  28.3702753  59.0748903  40.7548553  28.5332753  59.6648903
  40.1688553  29.0612753  58.5428903  40.2298553  28.4962753  59.0838903
  47.2088553  22.0402753  71.0708903  47.2638553  22.1652753  70.2088903
  47.9618553  22.3602753  71.3728903  47.3278553  22.1052753  70.9878903
  43.3998553  27.3892753  75.3478903  43.5638553  27.6722753  76.1568903
  43.6628553  28.0502753  74.8428903  43.4628553  27.5292753  75.3928903
  48.2408553  12.3382753  74.0578903  47.6038553  11.9382753  73.6158903
  48.2668553  11.9072753  74.8158903  48.1508553  12.2162753  74.1038903
  34.6338553  20.9042753  59.9038903  34.9578553  20.1252753  59.6818903
  35.2798553  21.2722753  60.3588903  34.7768553  20.8432753  59.9378903
  42.9398553  21.8462753  70.6708903  42.7848553  22.4562753  71.2748903
  43.4738553  21.2882753  71.0768903  42.9958553  21.8542753  70.8198903
  31.6308553  12.5652753  60.8718903  31.7598553  11.8572753  60.3798903
  31.2638553  12.2472753  61.5968903  31.5958553  12.4132753  60.9068903
  41.3238553  20.2462753  61.3288903  41.3828553  20.8962753  61.9078903
  41.1348553  19.5502753  61.8198903  41.3048553  20.2392753  61.4868903
  46.5498553  24.5752753  67.1978903  46.0708553  24.8732753  66.5318903
  46.1938553  23.7992753  67.3758903  46.4268553  24.5042753  67.1258903
  35.8198553  14.7632753  57.8408903  35.3088553  14.8162753  57.1348903
  36.6038553  15.0032753  57.5448903  35.8598553  14.8062753  57.6928903
  40.5468553  22.2932753  65.7598903  39.6998553  22.0992753  65.8408903
  40.8708553  22.1282753  66.5528903  40.4688553  22.2402753  65.8888903
  37.2988553  29.0232753  56.6458903  37.7378553  28.3262753  56.9338903
  37.5058553  29.6472753  57.2188903  37.3948553  29.0122753  56.7728903
  34.3948553  21.9862753  68.0758903  35.1168553  22.4742753  68.0388903
  34.1248553  21.9562753  67.2468903  34.4618553  22.0542753  67.9478903
  37.6248553  17.1572753  64.8108903  38.4708553  16.9672753  64.9088903
  37.2548553  16.3802753  64.6728903  37.6948553  17.0142753  64.8048903
  50.2418553  28.7412753  59.1378903  50.9358553  28.2742753  58.8898903
  49.7028553  28.1432753  59.4748903  50.2648553  28.5832753  59.1508903
  32.4458553  18.4952753  61.4658903  32.9348553  18.2032753  62.1268903
  32.5748553  17.9022753  60.8388903  32.5368553  18.3642753  61.4708903
  47.4808553  21.5172753  68.3168903  47.4738553  20.7412753  68.7148903
  46.6398553  21.7512753  68.3098903  47.3558553  21.4372753  68.3748903
  36.9708553  19.9292753  56.9518903  36.3608553  19.5242753  57.4258903
  36.5848553  20.0472753  56.1788903  36.8238553  19.8862753  56.9078903
  33.7898553  23.0382753  72.3538903  33.3688553  22.5202753  71.7928903
  33.4378553  23.8242753  72.2108903  33.6758553  23.0782753  72.2498903
  48.7368553  21.5882753  65.7538903  48.4508553  21.9892753  66.4738903
  49.5968553  21.5262753  65.8808903  48.8218553  21.6382753  65.8788903
  38.4258553  18.3902753  59.6618903  38.6978553  19.2162753  59.7288903
  37.5628553  18.4652753  59.5658903  38.3388553  18.5232753  59.6568903
  46.3988553  15.5122753  74.2938903  45.8738553  15.9712753  74.8178903
  46.0378553  14.7172753  74.2878903  46.2678553  15.4622753  74.3698903
  31.9058553  14.3602753  66.1978903  31.9498553  14.7042753  65.3968903
  32.6608553  14.5972753  66.5648903  32.0238553  14.4462753  66.1338903
  49.8678553  27.2212753  66.2828903  50.1578553  27.4782753  65.5018903
  50.5628553  27.3172753  66.8018903  50.0138553  27.2732753  66.2438903
  44.8908553  19.0812753  74.3698903  44.9638553  19.1852753  75.2328903
  44.2568553  19.6392753  74.1488903  44.8078553  19.1792753  74.4648903
  47.1588553  19.4002753  72.7348903  47.4778553  20.1862753  72.9378903
  46.7888553  19.1302753  73.4778903  47.1518553  19.4762753  72.8748903
  46.4728553  25.8242753  58.2648903  46.8068553  25.0182753  58.2998903
  45.7178553  25.7522753  58.6948903  46.4108553  25.6942753  58.3338903
  46.9548553  17.6582753  63.9238903  46.2098553  17.3352753  64.2418903
  46.9568553  18.4842753  64.2038903  46.8448553  17.7322753  64.0118903
  49.8568553  19.9422753  75.4698903  49.8048553  19.6012753  74.6688903
  50.5938553  20.4092753  75.4478903  49.9578553  19.9612753  75.3478903
  49.3948553  23.6182753  71.6758903  50.0228553  23.0692753  71.4198903
  49.3338553  24.1832753  71.0138903  49.4788553  23.6212753  71.5398903
  43.8468553  23.6992753  57.6678903  44.5308553  23.1852753  57.4988903
  43.4298553  23.7452753  56.9028903  43.8858553  23.6302753  57.5298903
  38.5288553  24.8492753  68.9718903  38.2308553  25.4412753  69.5388903
  38.5838553  25.2912753  68.2228903  38.4928553  25.0022753  68.9448903
  36.5078553  23.7992753  72.3698903  35.7018553  23.5092753  72.5368903
  36.4188553  24.6672753  72.3758903  36.3758553  23.8842753  72.3948903
  45.8668553  13.9882753  71.3848903  46.6108553  14.4402753  71.3218903
  45.3008553  14.4582753  70.9158903  45.8938553  14.1252753  71.3068903
  41.0448553  21.2722753  68.4628903  41.5208553  21.6462753  69.0908903
  40.2218553  21.4062753  68.7218903  40.9938553  21.3472753  68.5938903
  37.7548553  16.8752753  71.2038903  37.9158553  16.1312753  71.6308903
  37.7098553  16.6262753  70.3688903  37.7718553  16.7282753  71.1438903
  40.3088553  28.6652753  63.6908903  40.8548553  29.3442753  63.7448903
  39.9588553  28.7472753  62.8958903  40.3378553  28.7782753  63.5808903
  47.1518553  11.9682753  69.0548903  46.8718553  12.7932753  69.0108903
  47.8678553  12.0212753  69.5508903  47.2168553  12.0982753  69.1218903
  39.5068553  12.6832753  71.0838903  40.2118553  13.0032753  70.6818903
  39.7478553  11.8762753  71.3108903  39.6458553  12.6112753  71.0578903
  38.4918553  26.8932753  67.0798903  37.8678553  27.4752753  66.8978903
  38.7398553  26.6072753  66.2938903  38.4358553  26.9372753  66.9368903
  42.8008553  23.5272753  74.0688903  43.5578553  23.8132753  73.7428903
  42.2538553  23.5792753  73.3908903  42.8318553  23.5772753  73.9198903
  46.7098553  26.0772753  72.5728903  47.0558553  26.3472753  73.3268903
  47.0038553  26.6592753  71.9928903  46.8048553  26.2032753  72.5988903
  48.5728553  18.2232753  57.9118903  48.9508553  18.9002753  57.5118903
  47.7308553  18.4472753  57.9428903  48.5038553  18.3562753  57.8568903
  40.0858553  21.6692753  56.9948903  39.2808553  21.4922753  56.7098903
  40.0528553  22.5202753  57.1868903  39.9618553  21.7682753  56.9818903
  36.0158553  17.7362753  67.1448903  36.4558553  17.6332753  66.3988903
  36.5608553  17.4232753  67.7498903  36.1608553  17.6752753  67.1238903
  44.0318553  16.8382753  72.7368903  43.3838553  17.3082753  73.0848903
  44.5968553  16.7492753  73.3958903  44.0198553  16.8942753  72.8858903
  43.7198553  18.3752753  69.0348903  44.0218553  18.7952753  69.7378903
  43.7558553  17.5352753  69.2668903  43.7698553  18.3132753  69.1728903
  41.1448553  28.5422753  72.9598903  41.6228553  27.9422753  72.5438903
  40.7938553  28.0992753  73.6248903  41.1638553  28.3882753  72.9968903
  46.2678553  17.8222753  61.2868903  46.4748553  17.6212753  62.1108903
  47.0238553  18.0902753  60.9448903  46.4098553  17.8322753  61.3578903
  39.5628553  12.7212753  67.1918903  38.7368553  12.5722753  67.4288903
  39.5228553  12.7562753  66.3208903  39.4348553  12.7042753  67.0978903
  47.2898553  13.9052753  62.7608903  46.5758553  13.4342753  62.9318903
  47.1278553  14.2462753  61.9748903  47.1608553  13.8862753  62.6698903
  47.7328553  21.8492753  61.1408903  48.2088553  21.1202753  61.0928903
  46.9118553  21.5632753  61.0648903  47.6818553  21.6992753  61.1218903
  41.2038553  23.7612753  71.9798903  40.4088553  23.6972753  72.3308903
  41.2748553  24.6082753  71.7848903  41.0968553  23.8762753  72.0028903
  32.1278553  13.1192753  73.2268903  31.9878553  13.9142753  72.8958903
  31.3418553  12.8762753  73.5158903  31.9908553  13.2012753  73.2208903
  37.0338553  29.9682753  67.2968903  37.0448553  30.0272753  68.1668903
  36.6088553  29.2212753  67.1468903  36.9728553  29.8662753  67.4028903
  35.1918553  15.8632753  60.4518903  35.3178553  15.5342753  59.6538903
  34.3798553  15.6142753  60.6508903  35.0908553  15.7782753  60.3638903
  43.9488553  23.0162753  63.4958903  44.0248553  23.3572753  64.2948903
  44.1178553  22.1692753  63.6168903  43.9848553  22.9412753  63.6318903
  41.4708553  22.2902753  63.0608903  41.1728553  21.9752753  63.8178903
  42.1658553  22.7632753  63.2958903  41.5298553  22.3132753  63.2078903
  41.6928553  26.4082753  71.0878903  42.3798553  26.2942753  71.6128903
  41.8268553  27.1992753  70.7438903  41.8138553  26.5082753  71.1148903
  49.8688553  19.0172753  72.8988903  49.0138553  18.8952753  73.0248903
  50.0218553  18.6222753  72.1358903  49.7648553  18.9402753  72.8048903
  44.3818553  19.6822753  71.4748903  44.1268553  18.9632753  71.8968903
  45.2028553  19.7982753  71.7448903  44.4658553  19.5932753  71.5768903
  33.7978553  29.4662753  72.7388903  33.1438553  28.8972753  72.8368903
  33.4228553  30.2392753  72.8898903  33.6458553  29.4962753  72.7758903
  42.3158553  20.8722753  74.6618903  42.6388553  21.5582753  74.2298903
  41.6118553  21.1952753  75.0638903  42.2588553  21.0212753  74.6568903
  45.3998553  29.2462753  65.5908903  44.9488553  29.8892753  65.9698903
  46.1078553  29.1672753  66.0958903  45.4378553  29.3292753  65.7218903
  42.1008553  24.3362753  68.5208903  41.4068553  24.7382753  68.8638903
  42.7778553  24.7692753  68.8598903  42.0978553  24.4592753  68.6218903
  47.4778553  26.9292753  75.1008903  48.2538553  26.5392753  75.1838903
  47.0088553  26.5932753  75.7558903  47.5228553  26.8222753  75.2098903
  35.1688553  17.8742753  70.8678903  35.5438553  18.4932753  70.3808903
  35.8428553  17.4002753  71.1528903  35.3238553  17.8962753  70.8378903
  32.9438553  16.3222753  70.1428903  33.0208553  16.1532753  69.2898903
  33.6898553  16.7282753  70.3398903  33.0648553  16.3572753  70.0458903
  48.5028553  18.9622753  60.5828903  48.6058553  18.9042753  59.7188903
  49.2438553  18.6302753  60.9008903  48.6278553  18.9052753  60.5018903
  35.4978553  13.7322753  72.5538903  35.4168553  12.8882753  72.7598903
  35.1838553  13.7762753  71.7408903  35.4398553  13.6142753  72.4638903
  42.4228553  25.9272753  61.6898903  42.2178553  26.7602753  61.5308903
  41.6478553  25.5452753  61.8118903  42.2778553  25.9942753  61.6848903
  47.6048553  19.1082753  69.9388903  47.6028553  18.2452753  70.0628903
  47.6718553  19.4322753  70.7458903  47.6148553  19.0282753  70.0758903
  32.3408553  21.5482753  70.3668903  32.6608553  21.7672753  69.5858903
  32.2408553  20.6832753  70.3118903  32.3728553  21.4532753  70.2438903
  33.7968553  17.4842753  56.9848903  33.1248553  17.4982753  57.5408903
  33.8918553  16.6362753  56.8008903  33.7118553  17.3612753  57.0398903
  43.4838553  13.9082753  73.7208903  43.5758553  14.6202753  74.2148903
  42.8468553  13.4632753  74.1178903  43.4028553  13.9472753  73.8528903
  42.4778553  14.0982753  64.5748903  41.7778553  14.6162753  64.5188903
  42.5158553  13.7182753  63.7908903  42.3798553  14.1192753  64.4508903
  37.7848553  26.1892753  58.0988903  38.2258553  26.2692753  58.8468903
  36.9798553  25.9732753  58.3568903  37.7308553  26.1692753  58.2478903
  46.0758553  14.6142753  67.3748903  46.9308553  14.7132753  67.5198903
  45.7068553  15.1672753  67.9398903  46.1478553  14.7112753  67.4798903
  37.1038553  20.8402753  71.7518903  36.7078553  21.6142753  71.8268903
  36.6978553  20.4672753  71.0758903  36.9858553  20.8992753  71.6628903
  46.3798553  19.8942753  65.8658903  47.0458553  20.4352753  66.0258903
  46.0348553  20.2052753  65.1268903  46.4268553  20.0202753  65.7808903
  46.6928553  27.9602753  61.6728903  46.5188553  27.3062753  62.2228903
  47.4058553  27.6892753  61.2498903  46.7728553  27.8232753  61.6918903
  35.1138553  25.2592753  58.6998903  34.8698553  24.9522753  59.4798903
  35.0808553  24.5562753  58.1838903  35.0728553  25.1102753  58.7388903
  37.9328553  23.5042753  57.4428903  37.1148553  23.2362753  57.5828903
  37.9048553  24.3562753  57.6278903  37.8078553  23.5912753  57.4908903
  37.5328553  13.8172753  69.2018903  36.6688553  13.9012753  69.2818903
  37.7528553  13.3032753  69.8708903  37.4378553  13.7542753  69.3128903
  49.5508553  12.4522753  70.5308903  49.4988553  12.4082753  71.4008903
  50.2378553  11.9492753  70.3408903  49.6448553  12.3722753  70.6308903
  41.6358553  14.5652753  67.5758903  40.8988553  14.1112753  67.6888903
  42.2068553  14.1632753  68.0988903  41.6108553  14.4382753  67.6698903
  44.3678553  25.4132753  69.3638903  44.5738553  25.7142753  70.1558903
  44.3068553  26.1352753  68.8788903  44.3888553  25.5642753  69.4088903
  43.9018553  29.6272753  73.6098903  43.1488553  29.6092753  73.1688903
  44.0698553  30.4792753  73.6938903  43.8158553  29.7502753  73.5568903
  39.1388553  18.8942753  72.7798903  38.8168553  18.3182753  72.2098903
  38.7798553  19.6492753  72.5338903  39.0388553  18.9202753  72.6598903
  39.9348553  12.1462753  57.4068903  40.0128553  12.3932753  56.5738903
  39.1918553  12.5232753  57.6648903  39.8368553  12.2382753  57.3218903
  49.1798553  24.0522753  68.8218903  49.1478553  23.1902753  68.6868903
  48.4868553  24.3542753  68.3878903  49.0728553  23.9692753  68.7378903
  37.5738553  29.2502753  73.0278903  37.6148553  29.3762753  73.8908903
  38.2248553  28.6902753  72.8718903  37.6758553  29.1862753  73.1328903
  47.2848553  27.3122753  67.6188903  47.8118553  27.2292753  66.9278903
  46.8938553  26.5342753  67.6728903  47.3048553  27.1852753  67.5248903
  34.7528553  13.9002753  69.8498903  34.4098553  13.1332753  69.6158903
  34.0578553  14.4242753  69.9138903  34.5998553  13.8642753  69.8248903
  43.7988553  12.7562753  66.8268903  44.4688553  13.3002753  66.9538903
  43.2958553  13.1802753  66.2538903  43.8238553  12.8992753  66.7608903
  35.1668553  27.6332753  74.3878903  35.7618553  28.0642753  74.8598903
  34.8028553  28.2572753  73.8988903  35.2008553  27.7892753  74.3848903
  43.1578553  18.5642753  64.3198903  43.7088553  17.9572753  64.6198903
  42.7328553  18.8272753  65.0348903  43.1768553  18.5132753  64.4688903
  33.4058553  17.2142753  63.8058903  33.0378553  17.5162753  64.5368903
  33.9398553  16.5852753  64.0898903  33.4298553  17.1662753  63.9558903
  33.0938553  25.6222753  71.3168903  32.5198553  26.0382753  71.8258903
  33.8268553  26.0872753  71.4118903  33.1178553  25.7522753  71.4058903
  45.1278553  20.3952753  60.8818903  45.1958553  19.5452753  61.0628903
  44.3048553  20.4812753  60.6038903  45.0158553  20.2822753  60.8678903
  34.8798553  28.8892753  60.0918903  34.7348553  29.0452753  59.2458903
  35.7458553  28.9682753  60.1698903  34.9868553  28.9242753  59.9788903
  39.0468553  21.2862753  59.8198903  39.1468553  21.4252753  58.9648903
  39.8648553  21.2262753  60.1158903  39.1818553  21.2972753  59.7368903
  48.2068553  29.3502753  57.2998903  48.8438553  29.2162753  57.8808903
  47.8658553  28.5562753  57.1828903  48.2508553  29.2132753  57.3678903
  48.4018553  21.7682753  74.0328903  49.0358553  21.5982753  74.6068903
  48.8188553  22.1712753  73.3808903  48.5568553  21.8032753  74.0218903
  44.2818553  25.6152753  59.6218903  44.0308553  25.4872753  60.4478903
  43.9648553  24.9202753  59.2008903  44.1978553  25.4942753  59.6818903
  49.0268553  16.3322753  74.7708903  48.8308553  16.9762753  75.3258903
  48.3048553  15.8422753  74.7628903  48.8918553  16.3552753  74.8518903
  48.9258553  17.2732753  67.7418903  48.0928553  17.5232753  67.6698903
  48.8698553  16.4332753  67.9708903  48.7948553  17.1862753  67.7648903
  38.1858553  14.2612753  72.9358903  38.4198553  13.6852753  72.3228903
  37.3438553  14.0802753  73.0768903  38.0958553  14.1492753  72.8658903
  45.8128553  21.8792753  75.3878903  46.6838553  21.8432753  75.3518903
  45.5938553  22.2992753  74.6558903  45.9098553  21.9352753  75.2748903
  35.5668553  27.7042753  66.5688903  35.4878553  26.8942753  66.2528903
  35.1228553  28.1912753  65.9968903  35.4898553  27.6562753  66.4378903
  41.1678553  23.8232753  59.0518903  41.8848553  23.4762753  58.6958903
  41.1338553  24.6232753  58.7038903  41.2688553  23.8902753  58.9478903
  33.1388553  29.9482753  70.1498903  33.6318553  29.8922753  70.8678903
  33.3268553  29.2152753  69.7148903  33.2398553  29.8312753  70.1918903
  42.5768553  12.4642753  43.2906493  42.3318553  12.9522753  42.6106493
  43.4398553  12.3912753  43.1906493  42.6678553  12.5252753  43.1756493
  42.3858553  19.3802753  47.9616493  41.8618553  19.9762753  48.3246493
  42.7828553  19.0122753  48.6456493  42.3668553  19.4142753  48.1166493
  48.5298553  26.8212753  40.9326493  49.2308553  26.3022753  40.9286493
  47.9428553  26.3762753  40.4636493  48.5468553  26.6782753  40.8626493
  31.9978553  17.3122753  39.9246493  31.2198553  17.4742753  39.5646493
  32.0368553  16.4412753  39.9466493  31.8888553  17.2072753  39.8746493
  35.1368553  22.5752753  38.5966493  34.7448553  22.2042753  37.9106493
  35.0568553  21.9772753  39.2256493  35.0668553  22.4322753  38.5876493
  45.0568553  20.4472753  44.6376493  45.1368553  20.4512753  43.7686493
  44.4728553  19.8152753  44.7866493  44.9818553  20.3542753  44.5316493
  39.0458553  13.5512753  42.4456493  38.9758553  14.2282753  41.8996493
  39.7868553  13.1632753  42.1966493  39.1448553  13.5942753  42.3276493
  38.7688553  23.7802753  54.7396493  38.5328553  23.7772753  55.5796493
  38.0208553  23.6322753  54.3156493  38.6228553  23.7572753  54.8006493
  38.1488553  16.3862753  49.2216493  38.8268553  16.4042753  48.6726493
  38.1038553  15.5502753  49.4666493  38.2418553  16.2652753  49.1766493
  38.7508553  26.9722753  52.0026493  38.8888553  27.7322753  51.5956493
  39.5418553  26.6072753  52.0296493  38.8878553  27.0312753  51.9466493
  35.6418553  18.8762753  43.8976493  36.4588553  18.6892753  44.1406493
  35.1648553  18.2622753  44.2936493  35.6918553  18.7582753  43.9926493
  41.8708553  18.4372753  54.0576493  41.0228553  18.3382753  53.8796493
  41.8998553  19.1822753  54.5116493  41.7498553  18.5332753  54.0986493
  46.4288553  11.3972753  53.1716493  46.2708553  12.1662753  52.7896493
  45.6568553  11.1772753  53.5156493  46.2908553  11.4782753  53.1666493
  39.2178553  13.1122753  45.3866493  39.2908553  13.9722753  45.5156493
  39.1798553  13.0372753  44.5186493  39.2228553  13.2282753  45.2776493
  43.8908553  16.0382753  37.6856493  43.4408553  16.7192753  37.9926493
  44.0048553  15.5342753  38.3886493  43.8418553  16.0642753  37.8346493
  32.0968553  18.5372753  46.8876493  31.8408553  19.3682753  46.8126493
  31.4328553  18.1542753  47.3046493  31.9608553  18.6032753  46.9386493
  43.9898553  28.3792753  39.7896493  44.7168553  28.8512753  39.8916493
  44.2188553  27.5852753  40.0696493  44.1318553  28.3322753  39.8466493
  42.1578553  28.7712753  41.7796493  42.3718553  29.2982753  42.4416493
  42.9248553  28.5972753  41.4006493  42.3028553  28.8232753  41.8216493
  35.1258553  13.3542753  47.3786493  34.6048553  12.7262753  47.0706493
  35.7168553  12.9172753  47.8496493  35.1368553  13.1962753  47.4026493
  38.4318553  15.4872753  56.6766493  38.5488553  15.0332753  55.9406493
  38.7198553  16.2852753  56.4736493  38.4918553  15.5382753  56.5376493
  49.2848553  16.0112753  43.9806493  48.9388553  16.6892753  44.4066493
  48.6488553  15.4132753  43.9966493  49.1398553  16.0232753  44.0456493
  44.5968553  28.7812753  50.0846493  45.3408553  29.2372753  50.0746493
  44.4758553  28.5672753  49.2476493  44.6888553  28.8172753  49.9596493
  34.1648553  15.0842753  55.6606493  33.3868553  14.6942753  55.5886493
  34.6558553  14.6722753  55.0696493  34.1218553  14.9652753  55.5626493
  40.8138553  12.7272753  54.8286493  40.9918553  11.9182753  54.5536493
  40.6708553  13.1682753  54.0896493  40.8188553  12.6732753  54.6786493
  41.4078553  17.6532753  43.6016493  41.6948553  17.4212753  42.8116493
  42.1398553  17.7322753  44.0706493  41.5578553  17.6302753  43.5546493
  42.1298553  17.9922753  38.7226493  42.4108553  18.7802753  38.9716493
  41.3538553  18.1572753  38.3596493  42.0568553  18.1332753  38.7056493
  46.1708553  29.9662753  40.1896493  46.8358553  29.8182753  39.6446493
  46.5308553  29.8832753  40.9796493  46.3228553  29.9322753  40.2256493
  48.9598553  14.3342753  49.3496493  49.7168553  14.4062753  48.9216493
  49.0228553  13.5612753  49.7486493  49.0808553  14.2312753  49.3446493
  31.5128553  15.6322753  53.2466493  31.5088553  16.2192753  53.8926493
  32.1068553  15.9442753  52.6896493  31.5998553  15.7652753  53.2596493
  43.8508553  25.9662753  53.7886493  43.8168553  26.3482753  54.5726493
  44.7048553  25.9242753  53.6176493  43.9718553  26.0162753  53.8796493
  40.9888553  26.1632753  38.5386493  40.8078553  26.7082753  39.1956493
  41.7548553  26.4532753  38.2376493  41.0748553  26.2872753  38.5916493
  44.4958553  14.0592753  39.5926493  45.0358553  13.3772753  39.6686493
  44.5578553  14.4572753  40.3666493  44.5848553  14.0172753  39.7186493
  32.4498553  15.2272753  42.1616493  32.3358553  14.3632753  42.1926493
  31.9748553  15.5212753  42.8316493  32.3628553  15.1432753  42.2646493
  41.7538553  16.4352753  40.9066493  41.2458553  15.7732753  40.6526493
  41.8058553  16.9392753  40.1966493  41.6868553  16.4122753  40.7646493
  42.3028553  29.1302753  51.2866493  43.0708553  29.0502753  50.8806493
  41.7198553  29.0092753  50.6486493  42.3298553  29.1002753  51.1326493
  41.7538553  13.3762753  40.7976493  41.2988553  12.9742753  40.1716493
  42.5268553  13.5312753  40.4226493  41.8008553  13.3402753  40.6496493
  48.5798553  29.7332753  44.1876493  48.1248553  30.4502753  44.3886493
  47.9658553  29.1622753  43.9456493  48.4218553  29.7552753  44.1816493
  40.3518553  15.7432753  45.3196493  40.4258553  16.3112753  44.6616493
  40.4728553  16.2352753  46.0296493  40.3798553  15.9002753  45.3276493
  45.5768553  25.5782753  43.7316493  46.2778553  25.0962753  43.9206493
  44.9168553  25.0092753  43.7766493  45.5828553  25.4232753  43.7656493
  35.9528553  26.4882753  52.9436493  36.7938553  26.5512753  52.7216493
  35.9158553  26.8852753  53.7196493  36.0718553  26.5562753  53.0256493
  34.9598553  11.5662753  43.6676493  35.4958553  12.2542753  43.6576493
  34.9628553  11.2922753  42.8396493  35.0388553  11.6272753  43.5436493
  37.9158553  21.9992753  47.6926493  38.0878553  21.7892753  48.5216493
  37.2608553  21.4652753  47.4766493  37.8448553  21.8892753  47.7836493
  44.1438553  15.9132753  51.2076493  44.0488553  16.2322753  52.0136493
  43.5508553  15.2742753  51.1696493  44.0418553  15.8652753  51.3216493
  38.6658553  21.9372753  50.2826493  38.7188553  22.7842753  50.4846493
  38.3808553  21.5672753  51.0196493  38.6318553  22.0072753  50.4206493
  44.8428553  22.6322753  49.4126493  44.3288553  22.2202753  49.9836493
  44.7168553  23.4762753  49.5936493  44.7488553  22.6962753  49.5236493
  45.3998553  11.8572753  44.0436493  45.4488553  11.5392753  44.8546493
  45.7228553  11.2132753  43.5506493  45.4548553  11.7152753  44.0906493
  31.4868553  26.3082753  56.4936493  32.2428553  26.6572753  56.7516493
  31.6638553  25.4552753  56.4366493  31.6248553  26.2332753  56.5236493
  47.8638553  16.0932753  52.3516493  48.6358553  15.8682753  52.6886493
  47.3888553  16.3102753  53.0516493  47.9078553  16.0922753  52.5046493
  35.4078553  15.3762753  45.3216493  35.6798553  14.9462753  44.6136493
  35.2318553  14.7402753  45.8926493  35.4218553  15.2192753  45.3016493
  48.0958553  23.0712753  39.5396493  48.2148553  22.7842753  40.3546493
  48.9028553  23.0922753  39.2096493  48.2318553  23.0322753  39.6116493
  33.5488553  16.4782753  48.4036493  34.3918553  16.6982753  48.3606493
  33.1598553  17.0512753  47.8726493  33.6158553  16.5952753  48.3186493
  50.3298553  27.5802753  53.7936493  49.6478553  27.8902753  53.3466493
  49.9608553  27.1222753  54.4386493  50.1738553  27.5582753  53.8226493
  45.9908553  19.6082753  39.1246493  45.7708553  20.3392753  38.7026493
  45.5428553  19.6592753  39.8716493  45.8918553  19.7232753  39.1726493
  50.1778553  14.4692753  38.5776493  49.5158553  13.9012753  38.6006493
  49.9848553  14.9812753  37.8976493  50.0518553  14.4612753  38.4806493
  39.4028553  18.1632753  56.5216493  38.9188553  18.7402753  56.9636493
  39.3748553  18.4582753  55.7006493  39.3268553  18.2922753  56.4656493
  50.5008553  18.8472753  51.1336493  50.7158553  18.0472753  50.8576493
  49.6508553  18.9072753  50.9446493  50.4068553  18.7382753  51.0646493
  31.8218553  21.1372753  41.5286493  31.6368553  20.2982753  41.6806493
  32.4808553  21.1012753  40.9586493  31.8918553  21.0082753  41.4666493
  48.1798553  14.0272753  40.8566493  48.9258553  13.6202753  41.0556493
  48.4428553  14.7422753  40.4316493  48.3288553  14.0732753  40.8236493
  42.1228553  26.5132753  45.4326493  41.5998553  27.1472753  45.1396493
  42.4328553  26.1492753  44.7036493  42.0908553  26.5532753  45.2816493
  44.6338553  16.3152753  45.9296493  44.9778553  16.4672753  46.7166493
  44.1808553  15.5772753  46.0426493  44.6178553  16.2282753  46.0626493
  39.1098553  15.5352753  40.3866493  39.1078553  15.4182753  39.5216493
  38.9288553  16.3832753  40.4786493  39.0828553  15.6432753  40.2726493
  48.1638553  27.9622753  51.8836493  47.4928553  28.4762753  52.1016493
  48.2268553  28.0622753  51.0196493  48.0738553  28.0532753  51.7886493
  34.9778553  18.9702753  54.8806493  34.4418553  18.4642753  55.3486493
  34.9978553  18.5802753  54.1006493  34.9008553  18.8372753  54.8346493
  35.4628553  18.3672753  40.0206493  35.3348553  17.9192753  40.7586493
  34.8808553  18.0252753  39.4686493  35.3578553  18.2502753  40.0486493
  35.6298553  20.1972753  46.6196493  34.8488553  20.1382753  46.2366493
  35.7018553  19.4452753  47.0566493  35.5248553  20.0782753  46.6276493
  36.0598553  19.9342753  50.0876493  36.0848553  19.2592753  49.5366493
  35.4138553  20.4302753  49.7756493  35.9688553  19.9072753  49.9606493
  45.9548553  17.6472753  48.4836493  45.2928553  17.9752753  48.9466493
  46.1418553  18.2812753  47.9146493  45.8848553  17.7892753  48.4676493
  42.5998553  13.5532753  51.9126493  42.7488553  12.7282753  51.6696493
  42.9788553  13.6082753  52.6966493  42.6778553  13.4392753  51.9926493
  44.1478553  15.6162753  41.9946493  44.6378553  16.3332753  41.9176493
  43.3578553  15.8772753  41.7316493  44.1038553  15.7602753  41.9446493
  33.8588553  21.2892753  55.6466493  33.8218553  21.7902753  54.9326493
  34.1898553  20.5372753  55.3516493  33.9018553  21.2512753  55.4976493
  45.4618553  23.4942753  53.9046493  45.9458553  24.2122753  54.0026493
  45.8558553  23.0672753  53.2536493  45.5918553  23.5372753  53.8226493
  39.7578553  26.3392753  55.0816493  40.1118553  26.1612753  55.8586493
  39.3218553  25.6102753  54.8826493  39.7458553  26.2052753  55.1676493
  40.7298553  17.0862753  47.7196493  41.2098553  17.7852753  47.9276493
  41.1028553  16.4392753  48.1706493  40.8558553  17.0942753  47.8166493
  42.9188553  20.2552753  39.9936493  42.9108553  20.9772753  39.5036493
  42.2798553  20.3902753  40.5706493  42.8238553  20.3822753  40.0066493
  47.8908553  24.1252753  43.9746493  48.2468553  23.7752753  44.6896493
  47.8828553  23.4642753  43.4046493  47.9428553  23.9752753  43.9956493
  43.9358553  27.1912753  47.8186493  43.3328553  26.8952753  47.2616493
  44.4808553  27.6432753  47.3096493  43.9268553  27.2142753  47.6606493
  43.9488553  24.0422753  47.2186493  43.1518553  24.2662753  47.4926493
  44.2068553  23.4482753  47.8036493  43.8688553  23.9872753  47.3456493
  37.5118553  12.5972753  39.6546493  37.6088553  12.4902753  40.5156493
  36.8038553  13.1032753  39.5896493  37.4218553  12.6562753  39.7726493
  40.1328553  28.3702753  40.0686493  40.7548553  28.5332753  40.6586493
  40.1688553  29.0612753  39.5366493  40.2298553  28.4962753  40.0776493
  47.2088553  22.0402753  52.0646493  47.2638553  22.1652753  51.2026493
  47.9618553  22.3602753  52.3666493  47.3278553  22.1052753  51.9816493
  43.3998553  27.3892753  56.3416493  43.5638553  27.6722753  57.1506493
  43.6628553  28.0502753  55.8366493  43.4628553  27.5292753  56.3866493
  48.2408553  12.3382753  55.0516493  47.6038553  11.9382753  54.6096493
  48.2668553  11.9072753  55.8096493  48.1508553  12.2162753  55.0976493
  34.6338553  20.9042753  40.8976493  34.9578553  20.1252753  40.6756493
  35.2798553  21.2722753  41.3526493  34.7768553  20.8432753  40.9316493
  31.6308553  12.5652753  41.8656493  31.7598553  11.8572753  41.3736493
  31.2638553  12.2472753  42.5906493  31.5958553  12.4132753  41.9006493
  41.3238553  20.2462753  42.3226493  41.3828553  20.8962753  42.9016493
  41.1348553  19.5502753  42.8136493  41.3048553  20.2392753  42.4806493
  46.5498553  24.5752753  48.1916493  46.0708553  24.8732753  47.5256493
  46.1938553  23.7992753  48.3696493  46.4268553  24.5042753  48.1196493
  35.8198553  14.7632753  38.8346493  35.3088553  14.8162753  38.1286493
  36.6038553  15.0032753  38.5386493  35.8598553  14.8062753  38.6866493
  40.5468553  22.2932753  46.7536493  39.6998553  22.0992753  46.8346493
  40.8708553  22.1282753  47.5466493  40.4688553  22.2402753  46.8826493
  37.2988553  29.0232753  37.6396493  37.7378553  28.3262753  37.9276493
  37.5058553  29.6472753  38.2126493  37.3948553  29.0122753  37.7666493
  34.3948553  21.9862753  49.0696493  35.1168553  22.4742753  49.0326493
  34.1248553  21.9562753  48.2406493  34.4618553  22.0542753  48.9416493
  37.6248553  17.1572753  45.8046493  38.4708553  16.9672753  45.9026493
  37.2548553  16.3802753  45.6666493  37.6948553  17.0142753  45.7986493
  50.2418553  28.7412753  40.1316493  50.9358553  28.2742753  39.8836493
  49.7028553  28.1432753  40.4686493  50.2648553  28.5832753  40.1446493
  32.4458553  18.4952753  42.4596493  32.9348553  18.2032753  43.1206493
  32.5748553  17.9022753  41.8326493  32.5368553  18.3642753  42.4646493
  47.4808553  21.5172753  49.3106493  47.4738553  20.7412753  49.7086493
  46.6398553  21.7512753  49.3036493  47.3558553  21.4372753  49.3686493
  36.9708553  19.9292753  37.9456493  36.3608553  19.5242753  38.4196493
  36.5848553  20.0472753  37.1726493  36.8238553  19.8862753  37.9016493
  33.7898553  23.0382753  53.3476493  33.3688553  22.5202753  52.7866493
  33.4378553  23.8242753  53.2046493  33.6758553  23.0782753  53.2436493
  48.7368553  21.5882753  46.7476493  48.4508553  21.9892753  47.4676493
  49.5968553  21.5262753  46.8746493  48.8218553  21.6382753  46.8726493
  38.4258553  18.3902753  40.6556493  38.6978553  19.2162753  40.7226493
  37.5628553  18.4652753  40.5596493  38.3388553  18.5232753  40.6506493
  46.3988553  15.5122753  55.2876493  45.8738553  15.9712753  55.8116493
  46.0378553  14.7172753  55.2816493  46.2678553  15.4622753  55.3636493
  31.9058553  14.3602753  47.1916493  31.9498553  14.7042753  46.3906493
  32.6608553  14.5972753  47.5586493  32.0238553  14.4462753  47.1276493
  49.8678553  27.2212753  47.2766493  50.1578553  27.4782753  46.4956493
  50.5628553  27.3172753  47.7956493  50.0138553  27.2732753  47.2376493
  44.8908553  19.0812753  55.3636493  44.9638553  19.1852753  56.2266493
  44.2568553  19.6392753  55.1426493  44.8078553  19.1792753  55.4586493
  47.1588553  19.4002753  53.7286493  47.4778553  20.1862753  53.9316493
  46.7888553  19.1302753  54.4716493  47.1518553  19.4762753  53.8686493
  46.4728553  25.8242753  39.2586493  46.8068553  25.0182753  39.2936493
  45.7178553  25.7522753  39.6886493  46.4108553  25.6942753  39.3276493
  46.9548553  17.6582753  44.9176493  46.2098553  17.3352753  45.2356493
  46.9568553  18.4842753  45.1976493  46.8448553  17.7322753  45.0056493
  49.8568553  19.9422753  56.4636493  49.8048553  19.6012753  55.6626493
  50.5938553  20.4092753  56.4416493  49.9578553  19.9612753  56.3416493
  49.3948553  23.6182753  52.6696493  50.0228553  23.0692753  52.4136493
  49.3338553  24.1832753  52.0076493  49.4788553  23.6212753  52.5336493
  43.8468553  23.6992753  38.6616493  44.5308553  23.1852753  38.4926493
  43.4298553  23.7452753  37.8966493  43.8858553  23.6302753  38.5236493
  38.5288553  24.8492753  49.9656493  38.2308553  25.4412753  50.5326493
  38.5838553  25.2912753  49.2166493  38.4928553  25.0022753  49.9386493
  36.5078553  23.7992753  53.3636493  35.7018553  23.5092753  53.5306493
  36.4188553  24.6672753  53.3696493  36.3758553  23.8842753  53.3886493
  45.8668553  13.9882753  52.3786493  46.6108553  14.4402753  52.3156493
  45.3008553  14.4582753  51.9096493  45.8938553  14.1252753  52.3006493
  41.0448553  21.2722753  49.4566493  41.5208553  21.6462753  50.0846493
  40.2218553  21.4062753  49.7156493  40.9938553  21.3472753  49.5876493
  47.1518553  11.9682753  50.0486493  46.8718553  12.7932753  50.0046493
  47.8678553  12.0212753  50.5446493  47.2168553  12.0982753  50.1156493
  39.5068553  12.6832753  52.0776493  40.2118553  13.0032753  51.6756493
  39.7478553  11.8762753  52.3046493  39.6458553  12.6112753  52.0516493
  42.8008553  23.5272753  55.0626493  43.5578553  23.8132753  54.7366493
  42.2538553  23.5792753  54.3846493  42.8318553  23.5772753  54.9136493
  46.7098553  26.0772753  53.5666493  47.0558553  26.3472753  54.3206493
  47.0038553  26.6592753  52.9866493  46.8048553  26.2032753  53.5926493
  48.5728553  18.2232753  38.9056493  48.9508553  18.9002753  38.5056493
  47.7308553  18.4472753  38.9366493  48.5038553  18.3562753  38.8506493
  40.0858553  21.6692753  37.9886493  39.2808553  21.4922753  37.7036493
  40.0528553  22.5202753  38.1806493  39.9618553  21.7682753  37.9756493
  36.0158553  17.7362753  48.1386493  36.4558553  17.6332753  47.3926493
  36.5608553  17.4232753  48.7436493  36.1608553  17.6752753  48.1176493
  44.0318553  16.8382753  53.7306493  43.3838553  17.3082753  54.0786493
  44.5968553  16.7492753  54.3896493  44.0198553  16.8942753  53.8796493
  43.7198553  18.3752753  50.0286493  44.0218553  18.7952753  50.7316493
  43.7558553  17.5352753  50.2606493  43.7698553  18.3132753  50.1666493
  41.1448553  28.5422753  53.9536493  41.6228553  27.9422753  53.5376493
  40.7938553  28.0992753  54.6186493  41.1638553  28.3882753  53.9906493
  46.2678553  17.8222753  42.2806493  46.4748553  17.6212753  43.1046493
  47.0238553  18.0902753  41.9386493  46.4098553  17.8322753  42.3516493
  39.5628553  12.7212753  48.1856493  38.7368553  12.5722753  48.4226493
  39.5228553  12.7562753  47.3146493  39.4348553  12.7042753  48.0916493
  47.2898553  13.9052753  43.7546493  46.5758553  13.4342753  43.9256493
  47.1278553  14.2462753  42.9686493  47.1608553  13.8862753  43.6636493
  47.7328553  21.8492753  42.1346493  48.2088553  21.1202753  42.0866493
  46.9118553  21.5632753  42.0586493  47.6818553  21.6992753  42.1156493
  41.2038553  23.7612753  52.9736493  40.4088553  23.6972753  53.3246493
  41.2748553  24.6082753  52.7786493  41.0968553  23.8762753  52.9966493
  32.1278553  13.1192753  54.2206493  31.9878553  13.9142753  53.8896493
  31.3418553  12.8762753  54.5096493  31.9908553  13.2012753  54.2146493
  35.1918553  15.8632753  41.4456493  35.3178553  15.5342753  40.6476493
  34.3798553  15.6142753  41.6446493  35.0908553  15.7782753  41.3576493
  43.9488553  23.0162753  44.4896493  44.0248553  23.3572753  45.2886493
  44.1178553  22.1692753  44.6106493  43.9848553  22.9412753  44.6256493
  41.4708553  22.2902753  44.0546493  41.1728553  21.9752753  44.8116493
  42.1658553  22.7632753  44.2896493  41.5298553  22.3132753  44.2016493
  41.6928553  26.4082753  52.0816493  42.3798553  26.2942753  52.6066493
  41.8268553  27.1992753  51.7376493  41.8138553  26.5082753  52.1086493
  49.8688553  19.0172753  53.8926493  49.0138553  18.8952753  54.0186493
  50.0218553  18.6222753  53.1296493  49.7648553  18.9402753  53.7986493
  44.3818553  19.6822753  52.4686493  44.1268553  18.9632753  52.8906493
  45.2028553  19.7982753  52.7386493  44.4658553  19.5932753  52.5706493
  33.7978553  29.4662753  53.7326493  33.1438553  28.8972753  53.8306493
  33.4228553  30.2392753  53.8836493  33.6458553  29.4962753  53.7696493
  42.3158553  20.8722753  55.6556493  42.6388553  21.5582753  55.2236493
  41.6118553  21.1952753  56.0576493  42.2588553  21.0212753  55.6506493
  45.3998553  29.2462753  46.5846493  44.9488553  29.8892753  46.9636493
  46.1078553  29.1672753  47.0896493  45.4378553  29.3292753  46.7156493
  42.1008553  24.3362753  49.5146493  41.4068553  24.7382753  49.8576493
  42.7778553  24.7692753  49.8536493  42.0978553  24.4592753  49.6156493
  47.4778553  26.9292753  56.0946493  48.2538553  26.5392753  56.1776493
  47.0088553  26.5932753  56.7496493  47.5228553  26.8222753  56.2036493
  35.1688553  17.8742753  51.8616493  35.5438553  18.4932753  51.3746493
  35.8428553  17.4002753  52.1466493  35.3238553  17.8962753  51.8316493
  32.9438553  16.3222753  51.1366493  33.0208553  16.1532753  50.2836493
  33.6898553  16.7282753  51.3336493  33.0648553  16.3572753  51.0396493
  48.5028553  18.9622753  41.5766493  48.6058553  18.9042753  40.7126493
  49.2438553  18.6302753  41.8946493  48.6278553  18.9052753  41.4956493
  35.4978553  13.7322753  53.5476493  35.4168553  12.8882753  53.7536493
  35.1838553  13.7762753  52.7346493  35.4398553  13.6142753  53.4576493
  47.6048553  19.1082753  50.9326493  47.6028553  18.2452753  51.0566493
  47.6718553  19.4322753  51.7396493  47.6148553  19.0282753  51.0696493
  32.3408553  21.5482753  51.3606493  32.6608553  21.7672753  50.5796493
  32.2408553  20.6832753  51.3056493  32.3728553  21.4532753  51.2376493
  33.7968553  17.4842753  37.9786493  33.1248553  17.4982753  38.5346493
  33.8918553  16.6362753  37.7946493  33.7118553  17.3612753  38.0336493
  43.4838553  13.9082753  54.7146493  43.5758553  14.6202753  55.2086493
  42.8468553  13.4632753  55.1116493  43.4028553  13.9472753  54.8466493
  42.4778553  14.0982753  45.5686493  41.7778553  14.6162753  45.5126493
  42.5158553  13.7182753  44.7846493  42.3798553  14.1192753  45.4446493
  37.7848553  26.1892753  39.0926493  38.2258553  26.2692753  39.8406493
  36.9798553  25.9732753  39.3506493  37.7308553  26.1692753  39.2416493
  46.0758553  14.6142753  48.3686493  46.9308553  14.7132753  48.5136493
  45.7068553  15.1672753  48.9336493  46.1478553  14.7112753  48.4736493
  37.1038553  20.8402753  52.7456493  36.7078553  21.6142753  52.8206493
  36.6978553  20.4672753  52.0696493  36.9858553  20.8992753  52.6566493
  46.3798553  19.8942753  46.8596493  47.0458553  20.4352753  47.0196493
  46.0348553  20.2052753  46.1206493  46.4268553  20.0202753  46.7746493
  46.6928553  27.9602753  42.6666493  46.5188553  27.3062753  43.2166493
  47.4058553  27.6892753  42.2436493  46.7728553  27.8232753  42.6856493
  37.9328553  23.5042753  38.4366493  37.1148553  23.2362753  38.5766493
  37.9048553  24.3562753  38.6216493  37.8078553  23.5912753  38.4846493
  37.5328553  13.8172753  50.1956493  36.6688553  13.9012753  50.2756493
  37.7528553  13.3032753  50.8646493  37.4378553  13.7542753  50.3066493
  49.5508553  12.4522753  51.5246493  49.4988553  12.4082753  52.3946493
  50.2378553  11.9492753  51.3346493  49.6448553  12.3722753  51.6246493
  41.6358553  14.5652753  48.5696493  40.8988553  14.1112753  48.6826493
  42.2068553  14.1632753  49.0926493  41.6108553  14.4382753  48.6636493
  44.3678553  25.4132753  50.3576493  44.5738553  25.7142753  51.1496493
  44.3068553  26.1352753  49.8726493  44.3888553  25.5642753  50.4026493
  43.9018553  29.6272753  54.6036493  43.1488553  29.6092753  54.1626493
  44.0698553  30.4792753  54.6876493  43.8158553  29.7502753  54.5506493
  39.1388553  18.8942753  53.7736493  38.8168553  18.3182753  53.2036493
  38.7798553  19.6492753  53.5276493  39.0388553  18.9202753  53.6536493
  39.9348553  12.1462753  38.4006493  40.0128553  12.3932753  37.5676493
  39.1918553  12.5232753  38.6586493  39.8368553  12.2382753  38.3156493
  49.1798553  24.0522753  49.8156493  49.1478553  23.1902753  49.6806493
  48.4868553  24.3542753  49.3816493  49.0728553  23.9692753  49.7316493
  37.5738553  29.2502753  54.0216493  37.6148553  29.3762753  54.8846493
  38.2248553  28.6902753  53.8656493  37.6758553  29.1862753  54.1266493
  47.2848553  27.3122753  48.6126493  47.8118553  27.2292753  47.9216493
  46.8938553  26.5342753  48.6666493  47.3048553  27.1852753  48.5186493
  34.7528553  13.9002753  50.8436493  34.4098553  13.1332753  50.6096493
  34.0578553  14.4242753  50.9076493  34.5998553  13.8642753  50.8186493
  43.7988553  12.7562753  47.8206493  44.4688553  13.3002753  47.9476493
  43.2958553  13.1802753  47.2476493  43.8238553  12.8992753  47.7546493
  35.1668553  27.6332753  55.3816493  35.7618553  28.0642753  55.8536493
  34.8028553  28.2572753  54.8926493  35.2008553  27.7892753  55.3786493
  43.1578553  18.5642753  45.3136493  43.7088553  17.9572753  45.6136493
  42.7328553  18.8272753  46.0286493  43.1768553  18.5132753  45.4626493
  33.4058553  17.2142753  44.7996493  33.0378553  17.5162753  45.5306493
  33.9398553  16.5852753  45.0836493  33.4298553  17.1662753  44.9496493
  33.0938553  25.6222753  52.3106493  32.5198553  26.0382753  52.8196493
  33.8268553  26.0872753  52.4056493  33.1178553  25.7522753  52.3996493
  45.1278553  20.3952753  41.8756493  45.1958553  19.5452753  42.0566493
  44.3048553  20.4812753  41.5976493  45.0158553  20.2822753  41.8616493
  39.0468553  21.2862753  40.8136493  39.1468553  21.4252753  39.9586493
  39.8648553  21.2262753  41.1096493  39.1818553  21.2972753  40.7306493
  48.2068553  29.3502753  38.2936493  48.8438553  29.2162753  38.8746493
  47.8658553  28.5562753  38.1766493  48.2508553  29.2132753  38.3616493
  48.4018553  21.7682753  55.0266493  49.0358553  21.5982753  55.6006493
  48.8188553  22.1712753  54.3746493  48.5568553  21.8032753  55.0156493
  44.2818553  25.6152753  40.6156493  44.0308553  25.4872753  41.4416493
  43.9648553  24.9202753  40.1946493  44.1978553  25.4942753  40.6756493
  49.0268553  16.3322753  55.7646493  48.8308553  16.9762753  56.3196493
  48.3048553  15.8422753  55.7566493  48.8918553  16.3552753  55.8456493
  48.9258553  17.2732753  48.7356493  48.0928553  17.5232753  48.6636493
  48.8698553  16.4332753  48.9646493  48.7948553  17.1862753  48.7586493
  38.1858553  14.2612753  53.9296493  38.4198553  13.6852753  53.3166493
  37.3438553  14.0802753  54.0706493  38.0958553  14.1492753  53.8596493
  45.8128553  21.8792753  56.3816493  46.6838553  21.8432753  56.3456493
  45.5938553  22.2992753  55.6496493  45.9098553  21.9352753  56.2686493
  41.1678553  23.8232753  40.0456493  41.8848553  23.4762753  39.6896493
  41.1338553  24.6232753  39.6976493  41.2688553  23.8902753  39.9416493
  42.5768553  12.4642753  24.2844083  42.3318553  12.9522753  23.6044083
  43.4398553  12.3912753  24.1844083  42.6678553  12.5252753  24.1694083
  42.3858553  19.3802753  28.9554083  41.8618553  19.9762753  29.3184083
  42.7828553  19.0122753  29.6394083  42.3668553  19.4142753  29.1104083
  32.2548553  23.5202753  24.4114083  31.8138553  23.6382753  25.1544083
  31.9718553  22.7452753  24.1264083  32.1478553  23.4232753  24.4794083
  48.5298553  26.8212753  21.9264083  49.2308553  26.3022753  21.9224083
  47.9428553  26.3762753  21.4574083  48.5468553  26.6782753  21.8564083
  31.9978553  17.3122753  20.9184083  31.2198553  17.4742753  20.5584083
  32.0368553  16.4412753  20.9404083  31.8888553  17.2072753  20.8684083
  35.1368553  22.5752753  19.5904083  34.7448553  22.2042753  18.9044083
  35.0568553  21.9772753  20.2194083  35.0668553  22.4322753  19.5814083
  45.0568553  20.4472753  25.6314083  45.1368553  20.4512753  24.7624083
  44.4728553  19.8152753  25.7804083  44.9818553  20.3542753  25.5254083
  34.7638553  24.2162753  23.4904083  35.3718553  24.0462753  24.0934083
  34.0128553  24.0762753  23.9114083  34.7428553  24.1702753  23.6414083
  39.0458553  13.5512753  23.4394083  38.9758553  14.2282753  22.8934083
  39.7868553  13.1632753  23.1904083  39.1448553  13.5942753  23.3214083
  33.6548553  27.3072753  19.5674083  34.1218553  27.3912753  18.8354083
  34.1098553  26.7292753  20.0364083  33.7908553  27.2342753  19.5284083
  32.1948553  26.2552753  30.6664083  32.3238553  25.9752753  31.4824083
  31.5848553  25.7142753  30.3574083  32.1238553  26.1342753  30.7414083
  38.7688553  23.7802753  35.7334083  38.5328553  23.7772753  36.5734083
  38.0208553  23.6322753  35.3094083  38.6228553  23.7572753  35.7944083
  33.6408553  20.7762753  24.8684083  33.1788553  20.3842753  24.2414083
  34.3408553  20.2632753  24.9604083  33.6758553  20.6432753  24.7894083
  38.1488553  16.3862753  30.2154083  38.8268553  16.4042753  29.6664083
  38.1038553  15.5502753  30.4604083  38.2418553  16.2652753  30.1704083
  38.7508553  26.9722753  32.9964083  38.8888553  27.7322753  32.5894083
  39.5418553  26.6072753  33.0234083  38.8878553  27.0312753  32.9404083
  35.6418553  18.8762753  24.8914083  36.4588553  18.6892753  25.1344083
  35.1648553  18.2622753  25.2874083  35.6918553  18.7582753  24.9864083
  39.8458553  24.8572753  27.5014083  40.1938553  24.0582753  27.5314083
  40.5108553  25.3612753  27.2464083  39.9958553  24.8132753  27.4684083
  39.9028553  24.3062753  23.7124083  40.2338553  23.6622753  24.1984083
  40.1428553  24.0952753  22.9014083  39.9868553  24.1802753  23.6644083
  41.8708553  18.4372753  35.0514083  41.0228553  18.3382753  34.8734083
  41.8998553  19.1822753  35.5054083  41.7498553  18.5332753  35.0924083
  36.2388553  13.9702753  24.1574083  35.9428553  14.4712753  23.5074083
  37.1058553  14.0482753  24.1004083  36.3228553  14.0562753  24.0534083
  46.4288553  11.3972753  34.1654083  46.2708553  12.1662753  33.7834083
  45.6568553  11.1772753  34.5094083  46.2908553  11.4782753  34.1604083
  39.2178553  13.1122753  26.3804083  39.2908553  13.9722753  26.5094083
  39.1798553  13.0372753  25.5124083  39.2228553  13.2282753  26.2714083
  43.8908553  16.0382753  18.6794083  43.4408553  16.7192753  18.9864083
  44.0048553  15.5342753  19.3824083  43.8418553  16.0642753  18.8284083
  32.0968553  18.5372753  27.8814083  31.8408553  19.3682753  27.8064083
  31.4328553  18.1542753  28.2984083  31.9608553  18.6032753  27.9324083
  32.0068553  28.2472753  25.7814083  31.4148553  28.8052753  25.4684083
  32.4328553  27.9782753  25.0694083  31.9828553  28.2892753  25.6304083
  37.8468553  26.0912753  23.2614083  37.2678553  25.8162753  23.8534083
  38.4708553  25.4822753  23.2864083  37.8538553  25.9612753  23.3524083
  43.9898553  28.3792753  20.7834083  44.7168553  28.8512753  20.8854083
  44.2188553  27.5852753  21.0634083  44.1318553  28.3322753  20.8404083
  42.1578553  28.7712753  22.7734083  42.3718553  29.2982753  23.4354083
  42.9248553  28.5972753  22.3944083  42.3028553  28.8232753  22.8154083
  35.1258553  13.3542753  28.3724083  34.6048553  12.7262753  28.0644083
  35.7168553  12.9172753  28.8434083  35.1368553  13.1962753  28.3964083
  38.4318553  15.4872753  37.6704083  38.5488553  15.0332753  36.9344083
  38.7198553  16.2852753  37.4674083  38.4918553  15.5382753  37.5314083
  49.2848553  16.0112753  24.9744083  48.9388553  16.6892753  25.4004083
  48.6488553  15.4132753  24.9904083  49.1398553  16.0232753  25.0394083
  44.5968553  28.7812753  31.0784083  45.3408553  29.2372753  31.0684083
  44.4758553  28.5672753  30.2414083  44.6888553  28.8172753  30.9534083
  34.1648553  15.0842753  36.6544083  33.3868553  14.6942753  36.5824083
  34.6558553  14.6722753  36.0634083  34.1218553  14.9652753  36.5564083
  34.3698553  25.4042753  27.2124083  34.7928553  25.0482753  26.5384083
  34.6938553  24.9822753  27.9044083  34.4798553  25.2892753  27.2154083
  37.6008553  28.2562753  26.5084083  38.4448553  28.3602753  26.3134083
  37.3038553  29.0742753  26.5764083  37.6818553  28.3922753  26.4894083
  40.8138553  12.7272753  35.8224083  40.9918553  11.9182753  35.5474083
  40.6708553  13.1682753  35.0834083  40.8188553  12.6732753  35.6724083
  41.4078553  17.6532753  24.5954083  41.6948553  17.4212753  23.8054083
  42.1398553  17.7322753  25.0644083  41.5578553  17.6302753  24.5484083
  42.1298553  17.9922753  19.7164083  42.4108553  18.7802753  19.9654083
  41.3538553  18.1572753  19.3534083  42.0568553  18.1332753  19.6994083
  46.1708553  29.9662753  21.1834083  46.8358553  29.8182753  20.6384083
  46.5308553  29.8832753  21.9734083  46.3228553  29.9322753  21.2194083
  36.5988553  29.4752753  32.2484083  36.8908553  29.4082753  33.0684083
  35.9728553  28.8702753  32.2034083  36.5498553  29.3762753  32.3634083
  48.9598553  14.3342753  30.3434083  49.7168553  14.4062753  29.9154083
  49.0228553  13.5612753  30.7424083  49.0808553  14.2312753  30.3384083
  31.5128553  15.6322753  34.2404083  31.5088553  16.2192753  34.8864083
  32.1068553  15.9442753  33.6834083  31.5998553  15.7652753  34.2534083
  43.8508553  25.9662753  34.7824083  43.8168553  26.3482753  35.5664083
  44.7048553  25.9242753  34.6114083  43.9718553  26.0162753  34.8734083
  40.9888553  26.1632753  19.5324083  40.8078553  26.7082753  20.1894083
  41.7548553  26.4532753  19.2314083  41.0748553  26.2872753  19.5854083
  44.4958553  14.0592753  20.5864083  45.0358553  13.3772753  20.6624083
  44.5578553  14.4572753  21.3604083  44.5848553  14.0172753  20.7124083
  32.4498553  15.2272753  23.1554083  32.3358553  14.3632753  23.1864083
  31.9748553  15.5212753  23.8254083  32.3628553  15.1432753  23.2584083
  34.5918553  27.6372753  31.3704083  33.8938553  27.1292753  31.4964083
  34.8518553  27.4322753  30.5624083  34.5268553  27.5322753  31.2694083
  41.7538553  16.4352753  21.9004083  41.2458553  15.7732753  21.6464083
  41.8058553  16.9392753  21.1904083  41.6868553  16.4122753  21.7584083
  42.3028553  29.1302753  32.2804083  43.0708553  29.0502753  31.8744083
  41.7198553  29.0092753  31.6424083  42.3298553  29.1002753  32.1264083
  41.7538553  13.3762753  21.7914083  41.2988553  12.9742753  21.1654083
  42.5268553  13.5312753  21.4164083  41.8008553  13.3402753  21.6434083
  48.5798553  29.7332753  25.1814083  48.1248553  30.4502753  25.3824083
  47.9658553  29.1622753  24.9394083  48.4218553  29.7552753  25.1754083
  40.3518553  15.7432753  26.3134083  40.4258553  16.3112753  25.6554083
  40.4728553  16.2352753  27.0234083  40.3798553  15.9002753  26.3214083
  45.5768553  25.5782753  24.7254083  46.2778553  25.0962753  24.9144083
  44.9168553  25.0092753  24.7704083  45.5828553  25.4232753  24.7594083
  35.9528553  26.4882753  33.9374083  36.7938553  26.5512753  33.7154083
  35.9158553  26.8852753  34.7134083  36.0718553  26.5562753  34.0194083
  34.9598553  11.5662753  24.6614083  35.4958553  12.2542753  24.6514083
  34.9628553  11.2922753  23.8334083  35.0388553  11.6272753  24.5374083
  37.9158553  21.9992753  28.6864083  38.0878553  21.7892753  29.5154083
  37.2608553  21.4652753  28.4704083  37.8448553  21.8892753  28.7774083
  44.1438553  15.9132753  32.2014083  44.0488553  16.2322753  33.0074083
  43.5508553  15.2742753  32.1634083  44.0418553  15.8652753  32.3154083
  38.6658553  21.9372753  31.2764083  38.7188553  22.7842753  31.4784083
  38.3808553  21.5672753  32.0134083  38.6318553  22.0072753  31.4144083
  44.8428553  22.6322753  30.4064083  44.3288553  22.2202753  30.9774083
  44.7168553  23.4762753  30.5874083  44.7488553  22.6962753  30.5174083
  45.3998553  11.8572753  25.0374083  45.4488553  11.5392753  25.8484083
  45.7228553  11.2132753  24.5444083  45.4548553  11.7152753  25.0844083
  47.8638553  16.0932753  33.3454083  48.6358553  15.8682753  33.6824083
  47.3888553  16.3102753  34.0454083  47.9078553  16.0922753  33.4984083
  35.4078553  15.3762753  26.3154083  35.6798553  14.9462753  25.6074083
  35.2318553  14.7402753  26.8864083  35.4218553  15.2192753  26.2954083
  48.0958553  23.0712753  20.5334083  48.2148553  22.7842753  21.3484083
  48.9028553  23.0922753  20.2034083  48.2318553  23.0322753  20.6054083
  35.2318553  22.8032753  25.8644083  36.0828553  22.7232753  25.6914083
  34.8748553  22.1212753  25.4524083  35.3048553  22.6902753  25.7774083
  33.9988553  29.5282753  27.1014083  33.3258553  29.0302753  26.8564083
  34.4018553  29.7132753  26.3504083  33.9588553  29.4822753  26.9544083
  33.5488553  16.4782753  29.3974083  34.3918553  16.6982753  29.3544083
  33.1598553  17.0512753  28.8664083  33.6158553  16.5952753  29.3124083
  50.3298553  27.5802753  34.7874083  49.6478553  27.8902753  34.3404083
  49.9608553  27.1222753  35.4324083  50.1738553  27.5582753  34.8164083
  45.9908553  19.6082753  20.1184083  45.7708553  20.3392753  19.6964083
  45.5428553  19.6592753  20.8654083  45.8918553  19.7232753  20.1664083
  37.5998553  22.8102753  24.0994083  38.3128553  23.3052753  24.1894083
  37.8218553  22.2432753  23.4734083  37.7378553  22.7992753  24.0204083
  50.1778553  14.4692753  19.5714083  49.5158553  13.9012753  19.5944083
  49.9848553  14.9812753  18.8914083  50.0518553  14.4612753  19.4744083
  31.7558553  24.4532753  27.4194083  31.0888553  24.9412753  27.6954083
  32.4358553  24.9982753  27.4484083  31.7578553  24.6052753  27.4644083
  39.4028553  18.1632753  37.5154083  38.9188553  18.7402753  37.9574083
  39.3748553  18.4582753  36.6944083  39.3268553  18.2922753  37.4594083
  50.5008553  18.8472753  32.1274083  50.7158553  18.0472753  31.8514083
  49.6508553  18.9072753  31.9384083  50.4068553  18.7382753  32.0584083
  31.8218553  21.1372753  22.5224083  31.6368553  20.2982753  22.6744083
  32.4808553  21.1012753  21.9524083  31.8918553  21.0082753  22.4604083
  48.1798553  14.0272753  21.8504083  48.9258553  13.6202753  22.0494083
  48.4428553  14.7422753  21.4254083  48.3288553  14.0732753  21.8174083
  42.1228553  26.5132753  26.4264083  41.5998553  27.1472753  26.1334083
  42.4328553  26.1492753  25.6974083  42.0908553  26.5532753  26.2754083
  31.9938553  25.3012753  22.0974083  32.5458553  25.8702753  22.4614083
  31.7618553  24.7862753  22.7624083  32.0408553  25.3092753  22.2494083
  36.1978553  24.3012753  29.1864083  36.6648553  24.5902753  29.8644083
  36.7698553  23.8232753  28.7324083  36.3518553  24.2732753  29.2194083
  44.6338553  16.3152753  26.9234083  44.9778553  16.4672753  27.7104083
  44.1808553  15.5772753  27.0364083  44.6178553  16.2282753  27.0564083
  31.8238553  23.7502753  19.7254083  32.5798553  23.3182753  19.7834083
  31.8388553  24.2822753  20.4164083  31.9378553  23.7652753  19.8364083
  32.7638553  21.9712753  27.7304083  33.1948553  21.8422753  26.9834083
  32.5588553  22.8192753  27.7044083  32.7968553  22.0772753  27.6164083
  39.1098553  15.5352753  21.3804083  39.1078553  15.4182753  20.5154083
  38.9288553  16.3832753  21.4724083  39.0828553  15.6432753  21.2664083
  48.1638553  27.9622753  32.8774083  47.4928553  28.4762753  33.0954083
  48.2268553  28.0622753  32.0134083  48.0738553  28.0532753  32.7824083
  36.8478553  25.4872753  26.0124083  36.9738553  26.3302753  26.1994083
  37.5158553  25.0882753  26.4084083  36.9658553  25.5532753  26.0984083
  34.9778553  18.9702753  35.8744083  34.4418553  18.4642753  36.3424083
  34.9978553  18.5802753  35.0944083  34.9008553  18.8372753  35.8284083
  35.4628553  18.3672753  21.0144083  35.3348553  17.9192753  21.7524083
  34.8808553  18.0252753  20.4624083  35.3578553  18.2502753  21.0424083
  35.6298553  20.1972753  27.6134083  34.8488553  20.1382753  27.2304083
  35.7018553  19.4452753  28.0504083  35.5248553  20.0782753  27.6214083
  36.0598553  19.9342753  31.0814083  36.0848553  19.2592753  30.5304083
  35.4138553  20.4302753  30.7694083  35.9688553  19.9072753  30.9544083
  45.9548553  17.6472753  29.4774083  45.2928553  17.9752753  29.9404083
  46.1418553  18.2812753  28.9084083  45.8848553  17.7892753  29.4614083
  40.1598553  28.7112753  30.4734083  39.8828553  28.0702753  29.9504083
  39.9518553  29.4372753  30.0354083  40.0888553  28.7242753  30.3314083
  42.5998553  13.5532753  32.9064083  42.7488553  12.7282753  32.6634083
  42.9788553  13.6082753  33.6904083  42.6778553  13.4392753  32.9864083
  44.1478553  15.6162753  22.9884083  44.6378553  16.3332753  22.9114083
  43.3578553  15.8772753  22.7254083  44.1038553  15.7602753  22.9384083
  33.8588553  21.2892753  36.6404083  33.8218553  21.7902753  35.9264083
  34.1898553  20.5372753  36.3454083  33.9018553  21.2512753  36.4914083
  45.4618553  23.4942753  34.8984083  45.9458553  24.2122753  34.9964083
  45.8558553  23.0672753  34.2474083  45.5918553  23.5372753  34.8164083
  39.7578553  26.3392753  36.0754083  40.1118553  26.1612753  36.8524083
  39.3218553  25.6102753  35.8764083  39.7458553  26.2052753  36.1614083
  40.7298553  17.0862753  28.7134083  41.2098553  17.7852753  28.9214083
  41.1028553  16.4392753  29.1644083  40.8558553  17.0942753  28.8104083
  42.9188553  20.2552753  20.9874083  42.9108553  20.9772753  20.4974083
  42.2798553  20.3902753  21.5644083  42.8238553  20.3822753  21.0004083
  47.8908553  24.1252753  24.9684083  48.2468553  23.7752753  25.6834083
  47.8828553  23.4642753  24.3984083  47.9428553  23.9752753  24.9894083
  43.9358553  27.1912753  28.8124083  43.3328553  26.8952753  28.2554083
  44.4808553  27.6432753  28.3034083  43.9268553  27.2142753  28.6544083
  43.9488553  24.0422753  28.2124083  43.1518553  24.2662753  28.4864083
  44.2068553  23.4482753  28.7974083  43.8688553  23.9872753  28.3394083
  37.8408553  28.8542753  22.6604083  37.6938553  28.0782753  23.0314083
  38.5298553  28.7072753  22.1454083  37.9208553  28.7172753  22.6394083
  37.5118553  12.5972753  20.6484083  37.6088553  12.4902753  21.5094083
  36.8038553  13.1032753  20.5834083  37.4218553  12.6562753  20.7664083
  40.1328553  28.3702753  21.0624083  40.7548553  28.5332753  21.6524083
  40.1688553  29.0612753  20.5304083  40.2298553  28.4962753  21.0714083
  47.2088553  22.0402753  33.0584083  47.2638553  22.1652753  32.1964083
  47.9618553  22.3602753  33.3604083  47.3278553  22.1052753  32.9754083
  43.3998553  27.3892753  37.3354083  43.5638553  27.6722753  38.1444083
  43.6628553  28.0502753  36.8304083  43.4628553  27.5292753  37.3804083
  48.2408553  12.3382753  36.0454083  47.6038553  11.9382753  35.6034083
  48.2668553  11.9072753  36.8034083  48.1508553  12.2162753  36.0914083
  34.6338553  20.9042753  21.8914083  34.9578553  20.1252753  21.6694083
  35.2798553  21.2722753  22.3464083  34.7768553  20.8432753  21.9254083
  42.9398553  21.8462753  32.6584083  42.7848553  22.4562753  33.2624083
  43.4738553  21.2882753  33.0644083  42.9958553  21.8542753  32.8074083
  31.6308553  12.5652753  22.8594083  31.7598553  11.8572753  22.3674083
  31.2638553  12.2472753  23.5844083  31.5958553  12.4132753  22.8944083
  41.3238553  20.2462753  23.3164083  41.3828553  20.8962753  23.8954083
  41.1348553  19.5502753  23.8074083  41.3048553  20.2392753  23.4744083
  46.5498553  24.5752753  29.1854083  46.0708553  24.8732753  28.5194083
  46.1938553  23.7992753  29.3634083  46.4268553  24.5042753  29.1134083
  35.8198553  14.7632753  19.8284083  35.3088553  14.8162753  19.1224083
  36.6038553  15.0032753  19.5324083  35.8598553  14.8062753  19.6804083
  40.5468553  22.2932753  27.7474083  39.6998553  22.0992753  27.8284083
  40.8708553  22.1282753  28.5404083  40.4688553  22.2402753  27.8764083
  37.2988553  29.0232753  18.6334083  37.7378553  28.3262753  18.9214083
  37.5058553  29.6472753  19.2064083  37.3948553  29.0122753  18.7604083
  34.3948553  21.9862753  30.0634083  35.1168553  22.4742753  30.0264083
  34.1248553  21.9562753  29.2344083  34.4618553  22.0542753  29.9354083
  37.6248553  17.1572753  26.7984083  38.4708553  16.9672753  26.8964083
  37.2548553  16.3802753  26.6604083  37.6948553  17.0142753  26.7924083
  50.2418553  28.7412753  21.1254083  50.9358553  28.2742753  20.8774083
  49.7028553  28.1432753  21.4624083  50.2648553  28.5832753  21.1384083
  32.4458553  18.4952753  23.4534083  32.9348553  18.2032753  24.1144083
  32.5748553  17.9022753  22.8264083  32.5368553  18.3642753  23.4584083
  47.4808553  21.5172753  30.3044083  47.4738553  20.7412753  30.7024083
  46.6398553  21.7512753  30.2974083  47.3558553  21.4372753  30.3624083
  36.9708553  19.9292753  18.9394083  36.3608553  19.5242753  19.4134083
  36.5848553  20.0472753  18.1664083  36.8238553  19.8862753  18.8954083
  33.7898553  23.0382753  34.3414083  33.3688553  22.5202753  33.7804083
  33.4378553  23.8242753  34.1984083  33.6758553  23.0782753  34.2374083
  48.7368553  21.5882753  27.7414083  48.4508553  21.9892753  28.4614083
  49.5968553  21.5262753  27.8684083  48.8218553  21.6382753  27.8664083
  38.4258553  18.3902753  21.6494083  38.6978553  19.2162753  21.7164083
  37.5628553  18.4652753  21.5534083  38.3388553  18.5232753  21.6444083
  46.3988553  15.5122753  36.2814083  45.8738553  15.9712753  36.8054083
  46.0378553  14.7172753  36.2754083  46.2678553  15.4622753  36.3574083
  31.9058553  14.3602753  28.1854083  31.9498553  14.7042753  27.3844083
  32.6608553  14.5972753  28.5524083  32.0238553  14.4462753  28.1214083
  49.8678553  27.2212753  28.2704083  50.1578553  27.4782753  27.4894083
  50.5628553  27.3172753  28.7894083  50.0138553  27.2732753  28.2314083
  44.8908553  19.0812753  36.3574083  44.9638553  19.1852753  37.2204083
  44.2568553  19.6392753  36.1364083  44.8078553  19.1792753  36.4524083
  47.1588553  19.4002753  34.7224083  47.4778553  20.1862753  34.9254083
  46.7888553  19.1302753  35.4654083  47.1518553  19.4762753  34.8624083
  46.4728553  25.8242753  20.2524083  46.8068553  25.0182753  20.2874083
  45.7178553  25.7522753  20.6824083  46.4108553  25.6942753  20.3214083
  46.9548553  17.6582753  25.9114083  46.2098553  17.3352753  26.2294083
  46.9568553  18.4842753  26.1914083  46.8448553  17.7322753  25.9994083
  49.8568553  19.9422753  37.4574083  49.8048553  19.6012753  36.6564083
  50.5938553  20.4092753  37.4354083  49.9578553  19.9612753  37.3354083
  49.3948553  23.6182753  33.6634083  50.0228553  23.0692753  33.4074083
  49.3338553  24.1832753  33.0014083  49.4788553  23.6212753  33.5274083
  43.8468553  23.6992753  19.6554083  44.5308553  23.1852753  19.4864083
  43.4298553  23.7452753  18.8904083  43.8858553  23.6302753  19.5174083
  38.5288553  24.8492753  30.9594083  38.2308553  25.4412753  31.5264083
  38.5838553  25.2912753  30.2104083  38.4928553  25.0022753  30.9324083
  36.5078553  23.7992753  34.3574083  35.7018553  23.5092753  34.5244083
  36.4188553  24.6672753  34.3634083  36.3758553  23.8842753  34.3824083
  45.8668553  13.9882753  33.3724083  46.6108553  14.4402753  33.3094083
  45.3008553  14.4582753  32.9034083  45.8938553  14.1252753  33.2944083
  41.0448553  21.2722753  30.4504083  41.5208553  21.6462753  31.0784083
  40.2218553  21.4062753  30.7094083  40.9938553  21.3472753  30.5814083
  37.7548553  16.8752753  33.1914083  37.9158553  16.1312753  33.6184083
  37.7098553  16.6262753  32.3564083  37.7718553  16.7282753  33.1314083
  40.3088553  28.6652753  25.6784083  40.8548553  29.3442753  25.7324083
  39.9588553  28.7472753  24.8834083  40.3378553  28.7782753  25.5684083
  47.1518553  11.9682753  31.0424083  46.8718553  12.7932753  30.9984083
  47.8678553  12.0212753  31.5384083  47.2168553  12.0982753  31.1094083
  39.5068553  12.6832753  33.0714083  40.2118553  13.0032753  32.6694083
  39.7478553  11.8762753  33.2984083  39.6458553  12.6112753  33.0454083
  38.4918553  26.8932753  29.0674083  37.8678553  27.4752753  28.8854083
  38.7398553  26.6072753  28.2814083  38.4358553  26.9372753  28.9244083
  42.8008553  23.5272753  36.0564083  43.5578553  23.8132753  35.7304083
  42.2538553  23.5792753  35.3784083  42.8318553  23.5772753  35.9074083
  46.7098553  26.0772753  34.5604083  47.0558553  26.3472753  35.3144083
  47.0038553  26.6592753  33.9804083  46.8048553  26.2032753  34.5864083
  48.5728553  18.2232753  19.8994083  48.9508553  18.9002753  19.4994083
  47.7308553  18.4472753  19.9304083  48.5038553  18.3562753  19.8444083
  40.0858553  21.6692753  18.9824083  39.2808553  21.4922753  18.6974083
  40.0528553  22.5202753  19.1744083  39.9618553  21.7682753  18.9694083
  36.0158553  17.7362753  29.1324083  36.4558553  17.6332753  28.3864083
  36.5608553  17.4232753  29.7374083  36.1608553  17.6752753  29.1114083
  44.0318553  16.8382753  34.7244083  43.3838553  17.3082753  35.0724083
  44.5968553  16.7492753  35.3834083  44.0198553  16.8942753  34.8734083
  43.7198553  18.3752753  31.0224083  44.0218553  18.7952753  31.7254083
  43.7558553  17.5352753  31.2544083  43.7698553  18.3132753  31.1604083
  41.1448553  28.5422753  34.9474083  41.6228553  27.9422753  34.5314083
  40.7938553  28.0992753  35.6124083  41.1638553  28.3882753  34.9844083
  46.2678553  17.8222753  23.2744083  46.4748553  17.6212753  24.0984083
  47.0238553  18.0902753  22.9324083  46.4098553  17.8322753  23.3454083
  39.5628553  12.7212753  29.1794083  38.7368553  12.5722753  29.4164083
  39.5228553  12.7562753  28.3084083  39.4348553  12.7042753  29.0854083
  47.2898553  13.9052753  24.7484083  46.5758553  13.4342753  24.9194083
  47.1278553  14.2462753  23.9624083  47.1608553  13.8862753  24.6574083
  47.7328553  21.8492753  23.1284083  48.2088553  21.1202753  23.0804083
  46.9118553  21.5632753  23.0524083  47.6818553  21.6992753  23.1094083
  41.2038553  23.7612753  33.9674083  40.4088553  23.6972753  34.3184083
  41.2748553  24.6082753  33.7724083  41.0968553  23.8762753  33.9904083
  32.1278553  13.1192753  35.2144083  31.9878553  13.9142753  34.8834083
  31.3418553  12.8762753  35.5034083  31.9908553  13.2012753  35.2084083
  37.0338553  29.9682753  29.2844083  37.0448553  30.0272753  30.1544083
  36.6088553  29.2212753  29.1344083  36.9728553  29.8662753  29.3904083
  35.1918553  15.8632753  22.4394083  35.3178553  15.5342753  21.6414083
  34.3798553  15.6142753  22.6384083  35.0908553  15.7782753  22.3514083
  43.9488553  23.0162753  25.4834083  44.0248553  23.3572753  26.2824083
  44.1178553  22.1692753  25.6044083  43.9848553  22.9412753  25.6194083
  41.4708553  22.2902753  25.0484083  41.1728553  21.9752753  25.8054083
  42.1658553  22.7632753  25.2834083  41.5298553  22.3132753  25.1954083
  41.6928553  26.4082753  33.0754083  42.3798553  26.2942753  33.6004083
  41.8268553  27.1992753  32.7314083  41.8138553  26.5082753  33.1024083
  49.8688553  19.0172753  34.8864083  49.0138553  18.8952753  35.0124083
  50.0218553  18.6222753  34.1234083  49.7648553  18.9402753  34.7924083
  44.3818553  19.6822753  33.4624083  44.1268553  18.9632753  33.8844083
  45.2028553  19.7982753  33.7324083  44.4658553  19.5932753  33.5644083
  42.3158553  20.8722753  36.6494083  42.6388553  21.5582753  36.2174083
  41.6118553  21.1952753  37.0514083  42.2588553  21.0212753  36.6444083
  45.3998553  29.2462753  27.5784083  44.9488553  29.8892753  27.9574083
  46.1078553  29.1672753  28.0834083  45.4378553  29.3292753  27.7094083
  42.1008553  24.3362753  30.5084083  41.4068553  24.7382753  30.8514083
  42.7778553  24.7692753  30.8474083  42.0978553  24.4592753  30.6094083
  47.4778553  26.9292753  37.0884083  48.2538553  26.5392753  37.1714083
  47.0088553  26.5932753  37.7434083  47.5228553  26.8222753  37.1974083
  35.1688553  17.8742753  32.8554083  35.5438553  18.4932753  32.3684083
  35.8428553  17.4002753  33.1404083  35.3238553  17.8962753  32.8254083
  32.9438553  16.3222753  32.1304083  33.0208553  16.1532753  31.2774083
  33.6898553  16.7282753  32.3274083  33.0648553  16.3572753  32.0334083
  48.5028553  18.9622753  22.5704083  48.6058553  18.9042753  21.7064083
  49.2438553  18.6302753  22.8884083  48.6278553  18.9052753  22.4894083
  35.4978553  13.7322753  34.5414083  35.4168553  12.8882753  34.7474083
  35.1838553  13.7762753  33.7284083  35.4398553  13.6142753  34.4514083
  42.4228553  25.9272753  23.6774083  42.2178553  26.7602753  23.5184083
  41.6478553  25.5452753  23.7994083  42.2778553  25.9942753  23.6724083
  47.6048553  19.1082753  31.9264083  47.6028553  18.2452753  32.0504083
  47.6718553  19.4322753  32.7334083  47.6148553  19.0282753  32.0634083
  32.3408553  21.5482753  32.3544083  32.6608553  21.7672753  31.5734083
  32.2408553  20.6832753  32.2994083  32.3728553  21.4532753  32.2314083
  33.7968553  17.4842753  18.9724083  33.1248553  17.4982753  19.5284083
  33.8918553  16.6362753  18.7884083  33.7118553  17.3612753  19.0274083
  43.4838553  13.9082753  35.7084083  43.5758553  14.6202753  36.2024083
  42.8468553  13.4632753  36.1054083  43.4028553  13.9472753  35.8404083
  42.4778553  14.0982753  26.5624083  41.7778553  14.6162753  26.5064083
  42.5158553  13.7182753  25.7784083  42.3798553  14.1192753  26.4384083
  37.7848553  26.1892753  20.0864083  38.2258553  26.2692753  20.8344083
  36.9798553  25.9732753  20.3444083  37.7308553  26.1692753  20.2354083
  46.0758553  14.6142753  29.3624083  46.9308553  14.7132753  29.5074083
  45.7068553  15.1672753  29.9274083  46.1478553  14.7112753  29.4674083
  37.1038553  20.8402753  33.7394083  36.7078553  21.6142753  33.8144083
  36.6978553  20.4672753  33.0634083  36.9858553  20.8992753  33.6504083
  46.3798553  19.8942753  27.8534083  47.0458553  20.4352753  28.0134083
  46.0348553  20.2052753  27.1144083  46.4268553  20.0202753  27.7684083
  46.6928553  27.9602753  23.6604083  46.5188553  27.3062753  24.2104083
  47.4058553  27.6892753  23.2374083  46.7728553  27.8232753  23.6794083
  35.1138553  25.2592753  20.6874083  34.8698553  24.9522753  21.4674083
  35.0808553  24.5562753  20.1714083  35.0728553  25.1102753  20.7264083
  37.9328553  23.5042753  19.4304083  37.1148553  23.2362753  19.5704083
  37.9048553  24.3562753  19.6154083  37.8078553  23.5912753  19.4784083
  37.5328553  13.8172753  31.1894083  36.6688553  13.9012753  31.2694083
  37.7528553  13.3032753  31.8584083  37.4378553  13.7542753  31.3004083
  49.5508553  12.4522753  32.5184083  49.4988553  12.4082753  33.3884083
  50.2378553  11.9492753  32.3284083  49.6448553  12.3722753  32.6184083
  41.6358553  14.5652753  29.5634083  40.8988553  14.1112753  29.6764083
  42.2068553  14.1632753  30.0864083  41.6108553  14.4382753  29.6574083
  44.3678553  25.4132753  31.3514083  44.5738553  25.7142753  32.1434083
  44.3068553  26.1352753  30.8664083  44.3888553  25.5642753  31.3964083
  43.9018553  29.6272753  35.5974083  43.1488553  29.6092753  35.1564083
  44.0698553  30.4792753  35.6814083  43.8158553  29.7502753  35.5444083
  39.1388553  18.8942753  34.7674083  38.8168553  18.3182753  34.1974083
  38.7798553  19.6492753  34.5214083  39.0388553  18.9202753  34.6474083
  39.9348553  12.1462753  19.3944083  40.0128553  12.3932753  18.5614083
  39.1918553  12.5232753  19.6524083  39.8368553  12.2382753  19.3094083
  49.1798553  24.0522753  30.8094083  49.1478553  23.1902753  30.6744083
  48.4868553  24.3542753  30.3754083  49.0728553  23.9692753  30.7254083
  37.5738553  29.2502753  35.0154083  37.6148553  29.3762753  35.8784083
  38.2248553  28.6902753  34.8594083  37.6758553  29.1862753  35.1204083
  47.2848553  27.3122753  29.6064083  47.8118553  27.2292753  28.9154083
  46.8938553  26.5342753  29.6604083  47.3048553  27.1852753  29.5124083
  34.7528553  13.9002753  31.8374083  34.4098553  13.1332753  31.6034083
  34.0578553  14.4242753  31.9014083  34.5998553  13.8642753  31.8124083
  43.7988553  12.7562753  28.8144083  44.4688553  13.3002753  28.9414083
  43.2958553  13.1802753  28.2414083  43.8238553  12.8992753  28.7484083
  35.1668553  27.6332753  36.3754083  35.7618553  28.0642753  36.8474083
  34.8028553  28.2572753  35.8864083  35.2008553  27.7892753  36.3724083
  43.1578553  18.5642753  26.3074083  43.7088553  17.9572753  26.6074083
  42.7328553  18.8272753  27.0224083  43.1768553  18.5132753  26.4564083
  33.4058553  17.2142753  25.7934083  33.0378553  17.5162753  26.5244083
  33.9398553  16.5852753  26.0774083  33.4298553  17.1662753  25.9434083
  33.0938553  25.6222753  33.3044083  32.5198553  26.0382753  33.8134083
  33.8268553  26.0872753  33.3994083  33.1178553  25.7522753  33.3934083
  45.1278553  20.3952753  22.8694083  45.1958553  19.5452753  23.0504083
  44.3048553  20.4812753  22.5914083  45.0158553  20.2822753  22.8554083
  34.8798553  28.8892753  22.0794083  34.7348553  29.0452753  21.2334083
  35.7458553  28.9682753  22.1574083  34.9868553  28.9242753  21.9664083
  39.0468553  21.2862753  21.8074083  39.1468553  21.4252753  20.9524083
  39.8648553  21.2262753  22.1034083  39.1818553  21.2972753  21.7244083
  48.2068553  29.3502753  19.2874083  48.8438553  29.2162753  19.8684083
  47.8658553  28.5562753  19.1704083  48.2508553  29.2132753  19.3554083
  48.4018553  21.7682753  36.0204083  49.0358553  21.5982753  36.5944083
  48.8188553  22.1712753  35.3684083  48.5568553  21.8032753  36.0094083
  44.2818553  25.6152753  21.6094083  44.0308553  25.4872753  22.4354083
  43.9648553  24.9202753  21.1884083  44.1978553  25.4942753  21.6694083
  49.0268553  16.3322753  36.7584083  48.8308553  16.9762753  37.3134083
  48.3048553  15.8422753  36.7504083  48.8918553  16.3552753  36.8394083
  48.9258553  17.2732753  29.7294083  48.0928553  17.5232753  29.6574083
  48.8698553  16.4332753  29.9584083  48.7948553  17.1862753  29.7524083
  38.1858553  14.2612753  34.9234083  38.4198553  13.6852753  34.3104083
  37.3438553  14.0802753  35.0644083  38.0958553  14.1492753  34.8534083
  45.8128553  21.8792753  37.3754083  46.6838553  21.8432753  37.3394083
  45.5938553  22.2992753  36.6434083  45.9098553  21.9352753  37.2624083
  35.5668553  27.7042753  28.5564083  35.4878553  26.8942753  28.2404083
  35.1228553  28.1912753  27.9844083  35.4898553  27.6562753  28.4254083
  41.1678553  23.8232753  21.0394083  41.8848553  23.4762753  20.6834083
  41.1338553  24.6232753  20.6914083  41.2688553  23.8902753  20.9354083
  33.1388553  29.9482753  32.1374083  33.6318553  29.8922753  32.8554083
  33.3268553  29.2152753  31.7024083  33.2398553  29.8312753  32.1794083
  42.5768553  12.4642753   5.2781673  42.3318553  12.9522753   4.5981673
  43.4398553  12.3912753   5.1781673  42.6678553  12.5252753   5.1631673
  42.3858553  19.3802753   9.9491673  41.8618553  19.9762753  10.3121673
  42.7828553  19.0122753  10.6331673  42.3668553  19.4142753  10.1041673
  32.2548553  23.5202753   5.4051673  31.8138553  23.6382753   6.1481673
  31.9718553  22.7452753   5.1201673  32.1478553  23.4232753   5.4731673
  48.5298553  26.8212753   2.9201673  49.2308553  26.3022753   2.9161673
  47.9428553  26.3762753   2.4511673  48.5468553  26.6782753   2.8501673
  45.0568553  20.4472753   6.6251673  45.1368553  20.4512753   5.7561673
  44.4728553  19.8152753   6.7741673  44.9818553  20.3542753   6.5191673
  34.7638553  24.2162753   4.4841673  35.3718553  24.0462753   5.0871673
  34.0128553  24.0762753   4.9051673  34.7428553  24.1702753   4.6351673
  39.0458553  13.5512753   4.4331673  38.9758553  14.2282753   3.8871673
  39.7868553  13.1632753   4.1841673  39.1448553  13.5942753   4.3151673
  32.1948553  26.2552753  11.6601673  32.3238553  25.9752753  12.4761673
  31.5848553  25.7142753  11.3511673  32.1238553  26.1342753  11.7351673
  38.7688553  23.7802753  16.7271673  38.5328553  23.7772753  17.5671673
  38.0208553  23.6322753  16.3031673  38.6228553  23.7572753  16.7881673
  33.6408553  20.7762753   5.8621673  33.1788553  20.3842753   5.2351673
  34.3408553  20.2632753   5.9541673  33.6758553  20.6432753   5.7831673
  38.1488553  16.3862753  11.2091673  38.8268553  16.4042753  10.6601673
  38.1038553  15.5502753  11.4541673  38.2418553  16.2652753  11.1641673
  38.7508553  26.9722753  13.9901673  38.8888553  27.7322753  13.5831673
  39.5418553  26.6072753  14.0171673  38.8878553  27.0312753  13.9341673
  35.6418553  18.8762753   5.8851673  36.4588553  18.6892753   6.1281673
  35.1648553  18.2622753   6.2811673  35.6918553  18.7582753   5.9801673
  39.8458553  24.8572753   8.4951673  40.1938553  24.0582753   8.5251673
  40.5108553  25.3612753   8.2401673  39.9958553  24.8132753   8.4621673
  39.9028553  24.3062753   4.7061673  40.2338553  23.6622753   5.1921673
  40.1428553  24.0952753   3.8951673  39.9868553  24.1802753   4.6581673
  41.8708553  18.4372753  16.0451673  41.0228553  18.3382753  15.8671673
  41.8998553  19.1822753  16.4991673  41.7498553  18.5332753  16.0861673
  36.2388553  13.9702753   5.1511673  35.9428553  14.4712753   4.5011673
  37.1058553  14.0482753   5.0941673  36.3228553  14.0562753   5.0471673
  46.4288553  11.3972753  15.1591673  46.2708553  12.1662753  14.7771673
  45.6568553  11.1772753  15.5031673  46.2908553  11.4782753  15.1541673
  39.2178553  13.1122753   7.3741673  39.2908553  13.9722753   7.5031673
  39.1798553  13.0372753   6.5061673  39.2228553  13.2282753   7.2651673
  32.0968553  18.5372753   8.8751673  31.8408553  19.3682753   8.8001673
  31.4328553  18.1542753   9.2921673  31.9608553  18.6032753   8.9261673
  32.0068553  28.2472753   6.7751673  31.4148553  28.8052753   6.4621673
  32.4328553  27.9782753   6.0631673  31.9828553  28.2892753   6.6241673
  37.8468553  26.0912753   4.2551673  37.2678553  25.8162753   4.8471673
  38.4708553  25.4822753   4.2801673  37.8538553  25.9612753   4.3461673
  43.9898553  28.3792753   1.7771673  44.7168553  28.8512753   1.8791673
  44.2188553  27.5852753   2.0571673  44.1318553  28.3322753   1.8341673
  42.1578553  28.7712753   3.7671673  42.3718553  29.2982753   4.4291673
  42.9248553  28.5972753   3.3881673  42.3028553  28.8232753   3.8091673
  35.1258553  13.3542753   9.3661673  34.6048553  12.7262753   9.0581673
  35.7168553  12.9172753   9.8371673  35.1368553  13.1962753   9.3901673
  38.4318553  15.4872753  18.6641673  38.5488553  15.0332753  17.9281673
  38.7198553  16.2852753  18.4611673  38.4918553  15.5382753  18.5251673
  33.5518553  26.9172753   4.7061673  34.2078553  26.3422753   4.7211673
  33.9408553  27.6662753   4.4851673  33.7068553  26.9422753   4.6761673
  49.2848553  16.0112753   5.9681673  48.9388553  16.6892753   6.3941673
  48.6488553  15.4132753   5.9841673  49.1398553  16.0232753   6.0331673
  44.5968553  28.7812753  12.0721673  45.3408553  29.2372753  12.0621673
  44.4758553  28.5672753  11.2351673  44.6888553  28.8172753  11.9471673
  34.1648553  15.0842753  17.6481673  33.3868553  14.6942753  17.5761673
  34.6558553  14.6722753  17.0571673  34.1218553  14.9652753  17.5501673
  34.3698553  25.4042753   8.2061673  34.7928553  25.0482753   7.5321673
  34.6938553  24.9822753   8.8981673  34.4798553  25.2892753   8.2091673
  37.6008553  28.2562753   7.5021673  38.4448553  28.3602753   7.3071673
  37.3038553  29.0742753   7.5701673  37.6818553  28.3922753   7.4831673
  40.8138553  12.7272753  16.8161673  40.9918553  11.9182753  16.5411673
  40.6708553  13.1682753  16.0771673  40.8188553  12.6732753  16.6661673
  41.4078553  17.6532753   5.5891673  41.6948553  17.4212753   4.7991673
  42.1398553  17.7322753   6.0581673  41.5578553  17.6302753   5.5421673
  46.1708553  29.9662753   2.1771673  46.8358553  29.8182753   1.6321673
  46.5308553  29.8832753   2.9671673  46.3228553  29.9322753   2.2131673
  36.5988553  29.4752753  13.2421673  36.8908553  29.4082753  14.0621673
  35.9728553  28.8702753  13.1971673  36.5498553  29.3762753  13.3571673
  48.9598553  14.3342753  11.3371673  49.7168553  14.4062753  10.9091673
  49.0228553  13.5612753  11.7361673  49.0808553  14.2312753  11.3321673
  31.5128553  15.6322753  15.2341673  31.5088553  16.2192753  15.8801673
  32.1068553  15.9442753  14.6771673  31.5998553  15.7652753  15.2471673
  43.8508553  25.9662753  15.7761673  43.8168553  26.3482753  16.5601673
  44.7048553  25.9242753  15.6051673  43.9718553  26.0162753  15.8671673
  32.4498553  15.2272753   4.1491673  32.3358553  14.3632753   4.1801673
  31.9748553  15.5212753   4.8191673  32.3628553  15.1432753   4.2521673
  34.5918553  27.6372753  12.3641673  33.8938553  27.1292753  12.4901673
  34.8518553  27.4322753  11.5561673  34.5268553  27.5322753  12.2631673
  41.7538553  16.4352753   2.8941673  41.2458553  15.7732753   2.6401673
  41.8058553  16.9392753   2.1841673  41.6868553  16.4122753   2.7521673
  42.3028553  29.1302753  13.2741673  43.0708553  29.0502753  12.8681673
  41.7198553  29.0092753  12.6361673  42.3298553  29.1002753  13.1201673
  41.7538553  13.3762753   2.7851673  41.2988553  12.9742753   2.1591673
  42.5268553  13.5312753   2.4101673  41.8008553  13.3402753   2.6371673
  48.5798553  29.7332753   6.1751673  48.1248553  30.4502753   6.3761673
  47.9658553  29.1622753   5.9331673  48.4218553  29.7552753   6.1691673
  40.3518553  15.7432753   7.3071673  40.4258553  16.3112753   6.6491673
  40.4728553  16.2352753   8.0171673  40.3798553  15.9002753   7.3151673
  45.5768553  25.5782753   5.7191673  46.2778553  25.0962753   5.9081673
  44.9168553  25.0092753   5.7641673  45.5828553  25.4232753   5.7531673
  35.9528553  26.4882753  14.9311673  36.7938553  26.5512753  14.7091673
  35.9158553  26.8852753  15.7071673  36.0718553  26.5562753  15.0131673
  34.9598553  11.5662753   5.6551673  35.4958553  12.2542753   5.6451673
  34.9628553  11.2922753   4.8271673  35.0388553  11.6272753   5.5311673
  37.9158553  21.9992753   9.6801673  38.0878553  21.7892753  10.5091673
  37.2608553  21.4652753   9.4641673  37.8448553  21.8892753   9.7711673
  44.1438553  15.9132753  13.1951673  44.0488553  16.2322753  14.0011673
  43.5508553  15.2742753  13.1571673  44.0418553  15.8652753  13.3091673
  38.6658553  21.9372753  12.2701673  38.7188553  22.7842753  12.4721673
  38.3808553  21.5672753  13.0071673  38.6318553  22.0072753  12.4081673
  44.8428553  22.6322753  11.4001673  44.3288553  22.2202753  11.9711673
  44.7168553  23.4762753  11.5811673  44.7488553  22.6962753  11.5111673
  45.3998553  11.8572753   6.0311673  45.4488553  11.5392753   6.8421673
  45.7228553  11.2132753   5.5381673  45.4548553  11.7152753   6.0781673
  31.4868553  26.3082753  18.4811673  32.2428553  26.6572753  18.7391673
  31.6638553  25.4552753  18.4241673  31.6248553  26.2332753  18.5111673
  47.8638553  16.0932753  14.3391673  48.6358553  15.8682753  14.6761673
  47.3888553  16.3102753  15.0391673  47.9078553  16.0922753  14.4921673
  35.4078553  15.3762753   7.3091673  35.6798553  14.9462753   6.6011673
  35.2318553  14.7402753   7.8801673  35.4218553  15.2192753   7.2891673
  35.2318553  22.8032753   6.8581673  36.0828553  22.7232753   6.6851673
  34.8748553  22.1212753   6.4461673  35.3048553  22.6902753   6.7711673
  33.9988553  29.5282753   8.0951673  33.3258553  29.0302753   7.8501673
  34.4018553  29.7132753   7.3441673  33.9588553  29.4822753   7.9481673
  33.5488553  16.4782753  10.3911673  34.3918553  16.6982753  10.3481673
  33.1598553  17.0512753   9.8601673  33.6158553  16.5952753  10.3061673
  50.3298553  27.5802753  15.7811673  49.6478553  27.8902753  15.3341673
  49.9608553  27.1222753  16.4261673  50.1738553  27.5582753  15.8101673
  37.5998553  22.8102753   5.0931673  38.3128553  23.3052753   5.1831673
  37.8218553  22.2432753   4.4671673  37.7378553  22.7992753   5.0141673
  31.7558553  24.4532753   8.4131673  31.0888553  24.9412753   8.6891673
  32.4358553  24.9982753   8.4421673  31.7578553  24.6052753   8.4581673
  39.4028553  18.1632753  18.5091673  38.9188553  18.7402753  18.9511673
  39.3748553  18.4582753  17.6881673  39.3268553  18.2922753  18.4531673
  50.5008553  18.8472753  13.1211673  50.7158553  18.0472753  12.8451673
  49.6508553  18.9072753  12.9321673  50.4068553  18.7382753  13.0521673
  31.8218553  21.1372753   3.5161673  31.6368553  20.2982753   3.6681673
  32.4808553  21.1012753   2.9461673  31.8918553  21.0082753   3.4541673
  48.1798553  14.0272753   2.8441673  48.9258553  13.6202753   3.0431673
  48.4428553  14.7422753   2.4191673  48.3288553  14.0732753   2.8111673
  42.1228553  26.5132753   7.4201673  41.5998553  27.1472753   7.1271673
  42.4328553  26.1492753   6.6911673  42.0908553  26.5532753   7.2691673
  31.9938553  25.3012753   3.0911673  32.5458553  25.8702753   3.4551673
  31.7618553  24.7862753   3.7561673  32.0408553  25.3092753   3.2431673
  36.1978553  24.3012753  10.1801673  36.6648553  24.5902753  10.8581673
  36.7698553  23.8232753   9.7261673  36.3518553  24.2732753  10.2131673
  44.6338553  16.3152753   7.9171673  44.9778553  16.4672753   8.7041673
  44.1808553  15.5772753   8.0301673  44.6178553  16.2282753   8.0501673
  32.7638553  21.9712753   8.7241673  33.1948553  21.8422753   7.9771673
  32.5588553  22.8192753   8.6981673  32.7968553  22.0772753   8.6101673
  48.1638553  27.9622753  13.8711673  47.4928553  28.4762753  14.0891673
  48.2268553  28.0622753  13.0071673  48.0738553  28.0532753  13.7761673
  36.8478553  25.4872753   7.0061673  36.9738553  26.3302753   7.1931673
  37.5158553  25.0882753   7.4021673  36.9658553  25.5532753   7.0921673
  34.9778553  18.9702753  16.8681673  34.4418553  18.4642753  17.3361673
  34.9978553  18.5802753  16.0881673  34.9008553  18.8372753  16.8221673
  35.6298553  20.1972753   8.6071673  34.8488553  20.1382753   8.2241673
  35.7018553  19.4452753   9.0441673  35.5248553  20.0782753   8.6151673
  36.0598553  19.9342753  12.0751673  36.0848553  19.2592753  11.5241673
  35.4138553  20.4302753  11.7631673  35.9688553  19.9072753  11.9481673
  45.9548553  17.6472753  10.4711673  45.2928553  17.9752753  10.9341673
  46.1418553  18.2812753   9.9021673  45.8848553  17.7892753  10.4551673
  40.1598553  28.7112753  11.4671673  39.8828553  28.0702753  10.9441673
  39.9518553  29.4372753  11.0291673  40.0888553  28.7242753  11.3251673
  42.5998553  13.5532753  13.9001673  42.7488553  12.7282753  13.6571673
  42.9788553  13.6082753  14.6841673  42.6778553  13.4392753  13.9801673
  44.1478553  15.6162753   3.9821673  44.6378553  16.3332753   3.9051673
  43.3578553  15.8772753   3.7191673  44.1038553  15.7602753   3.9321673
  33.8588553  21.2892753  17.6341673  33.8218553  21.7902753  16.9201673
  34.1898553  20.5372753  17.3391673  33.9018553  21.2512753  17.4851673
  45.4618553  23.4942753  15.8921673  45.9458553  24.2122753  15.9901673
  45.8558553  23.0672753  15.2411673  45.5918553  23.5372753  15.8101673
  39.7578553  26.3392753  17.0691673  40.1118553  26.1612753  17.8461673
  39.3218553  25.6102753  16.8701673  39.7458553  26.2052753  17.1551673
  40.7298553  17.0862753   9.7071673  41.2098553  17.7852753   9.9151673
  41.1028553  16.4392753  10.1581673  40.8558553  17.0942753   9.8041673
  47.8908553  24.1252753   5.9621673  48.2468553  23.7752753   6.6771673
  47.8828553  23.4642753   5.3921673  47.9428553  23.9752753   5.9831673
  43.9358553  27.1912753   9.8061673  43.3328553  26.8952753   9.2491673
  44.4808553  27.6432753   9.2971673  43.9268553  27.2142753   9.6481673
  43.9488553  24.0422753   9.2061673  43.1518553  24.2662753   9.4801673
  44.2068553  23.4482753   9.7911673  43.8688553  23.9872753   9.3331673
  37.8408553  28.8542753   3.6541673  37.6938553  28.0782753   4.0251673
  38.5298553  28.7072753   3.1391673  37.9208553  28.7172753   3.6331673
  47.2088553  22.0402753  14.0521673  47.2638553  22.1652753  13.1901673
  47.9618553  22.3602753  14.3541673  47.3278553  22.1052753  13.9691673
  43.3998553  27.3892753  18.3291673  43.5638553  27.6722753  19.1381673
  43.6628553  28.0502753  17.8241673  43.4628553  27.5292753  18.3741673
  48.2408553  12.3382753  17.0391673  47.6038553  11.9382753  16.5971673
  48.2668553  11.9072753  17.7971673  48.1508553  12.2162753  17.0851673
  34.6338553  20.9042753   2.8851673  34.9578553  20.1252753   2.6631673
  35.2798553  21.2722753   3.3401673  34.7768553  20.8432753   2.9191673
  42.9398553  21.8462753  13.6521673  42.7848553  22.4562753  14.2561673
  43.4738553  21.2882753  14.0581673  42.9958553  21.8542753  13.8011673
  31.6308553  12.5652753   3.8531673  31.7598553  11.8572753   3.3611673
  31.2638553  12.2472753   4.5781673  31.5958553  12.4132753   3.8881673
  41.3238553  20.2462753   4.3101673  41.3828553  20.8962753   4.8891673
  41.1348553  19.5502753   4.8011673  41.3048553  20.2392753   4.4681673
  46.5498553  24.5752753  10.1791673  46.0708553  24.8732753   9.5131673
  46.1938553  23.7992753  10.3571673  46.4268553  24.5042753  10.1071673
  40.5468553  22.2932753   8.7411673  39.6998553  22.0992753   8.8221673
  40.8708553  22.1282753   9.5341673  40.4688553  22.2402753   8.8701673
  34.3948553  21.9862753  11.0571673  35.1168553  22.4742753  11.0201673
  34.1248553  21.9562753  10.2281673  34.4618553  22.0542753  10.9291673
  37.6248553  17.1572753   7.7921673  38.4708553  16.9672753   7.8901673
  37.2548553  16.3802753   7.6541673  37.6948553  17.0142753   7.7861673
  50.2418553  28.7412753   2.1191673  50.9358553  28.2742753   1.8711673
  49.7028553  28.1432753   2.4561673  50.2648553  28.5832753   2.1321673
  32.4458553  18.4952753   4.4471673  32.9348553  18.2032753   5.1081673
  32.5748553  17.9022753   3.8201673  32.5368553  18.3642753   4.4521673
  47.4808553  21.5172753  11.2981673  47.4738553  20.7412753  11.6961673
  46.6398553  21.7512753  11.2911673  47.3558553  21.4372753  11.3561673
  33.7898553  23.0382753  15.3351673  33.3688553  22.5202753  14.7741673
  33.4378553  23.8242753  15.1921673  33.6758553  23.0782753  15.2311673
  48.7368553  21.5882753   8.7351673  48.4508553  21.9892753   9.4551673
  49.5968553  21.5262753   8.8621673  48.8218553  21.6382753   8.8601673
  38.4258553  18.3902753   2.6431673  38.6978553  19.2162753   2.7101673
  37.5628553  18.4652753   2.5471673  38.3388553  18.5232753   2.6381673
  46.3988553  15.5122753  17.2751673  45.8738553  15.9712753  17.7991673
  46.0378553  14.7172753  17.2691673  46.2678553  15.4622753  17.3511673
  31.9058553  14.3602753   9.1791673  31.9498553  14.7042753   8.3781673
  32.6608553  14.5972753   9.5461673  32.0238553  14.4462753   9.1151673
  49.8678553  27.2212753   9.2641673  50.1578553  27.4782753   8.4831673
  50.5628553  27.3172753   9.7831673  50.0138553  27.2732753   9.2251673
  44.8908553  19.0812753  17.3511673  44.9638553  19.1852753  18.2141673
  44.2568553  19.6392753  17.1301673  44.8078553  19.1792753  17.4461673
  47.1588553  19.4002753  15.7161673  47.4778553  20.1862753  15.9191673
  46.7888553  19.1302753  16.4591673  47.1518553  19.4762753  15.8561673
  46.9548553  17.6582753   6.9051673  46.2098553  17.3352753   7.2231673
  46.9568553  18.4842753   7.1851673  46.8448553  17.7322753   6.9931673
  49.8568553  19.9422753  18.4511673  49.8048553  19.6012753  17.6501673
  50.5938553  20.4092753  18.4291673  49.9578553  19.9612753  18.3291673
  49.3948553  23.6182753  14.6571673  50.0228553  23.0692753  14.4011673
  49.3338553  24.1832753  13.9951673  49.4788553  23.6212753  14.5211673
  38.5288553  24.8492753  11.9531673  38.2308553  25.4412753  12.5201673
  38.5838553  25.2912753  11.2041673  38.4928553  25.0022753  11.9261673
  36.5078553  23.7992753  15.3511673  35.7018553  23.5092753  15.5181673
  36.4188553  24.6672753  15.3571673  36.3758553  23.8842753  15.3761673
  45.8668553  13.9882753  14.3661673  46.6108553  14.4402753  14.3031673
  45.3008553  14.4582753  13.8971673  45.8938553  14.1252753  14.2881673
  41.0448553  21.2722753  11.4441673  41.5208553  21.6462753  12.0721673
  40.2218553  21.4062753  11.7031673  40.9938553  21.3472753  11.5751673
  37.7548553  16.8752753  14.1851673  37.9158553  16.1312753  14.6121673
  37.7098553  16.6262753  13.3501673  37.7718553  16.7282753  14.1251673
  40.3088553  28.6652753   6.6721673  40.8548553  29.3442753   6.7261673
  39.9588553  28.7472753   5.8771673  40.3378553  28.7782753   6.5621673
  47.1518553  11.9682753  12.0361673  46.8718553  12.7932753  11.9921673
  47.8678553  12.0212753  12.5321673  47.2168553  12.0982753  12.1031673
  39.5068553  12.6832753  14.0651673  40.2118553  13.0032753  13.6631673
  39.7478553  11.8762753  14.2921673  39.6458553  12.6112753  14.0391673
  38.4918553  26.8932753  10.0611673  37.8678553  27.4752753   9.8791673
  38.7398553  26.6072753   9.2751673  38.4358553  26.9372753   9.9181673
  42.8008553  23.5272753  17.0501673  43.5578553  23.8132753  16.7241673
  42.2538553  23.5792753  16.3721673  42.8318553  23.5772753  16.9011673
  46.7098553  26.0772753  15.5541673  47.0558553  26.3472753  16.3081673
  47.0038553  26.6592753  14.9741673  46.8048553  26.2032753  15.5801673
  36.0158553  17.7362753  10.1261673  36.4558553  17.6332753   9.3801673
  36.5608553  17.4232753  10.7311673  36.1608553  17.6752753  10.1051673
  44.0318553  16.8382753  15.7181673  43.3838553  17.3082753  16.0661673
  44.5968553  16.7492753  16.3771673  44.0198553  16.8942753  15.8671673
  43.7198553  18.3752753  12.0161673  44.0218553  18.7952753  12.7191673
  43.7558553  17.5352753  12.2481673  43.7698553  18.3132753  12.1541673
  41.1448553  28.5422753  15.9411673  41.6228553  27.9422753  15.5251673
  40.7938553  28.0992753  16.6061673  41.1638553  28.3882753  15.9781673
  46.2678553  17.8222753   4.2681673  46.4748553  17.6212753   5.0921673
  47.0238553  18.0902753   3.9261673  46.4098553  17.8322753   4.3391673
  39.5628553  12.7212753  10.1731673  38.7368553  12.5722753  10.4101673
  39.5228553  12.7562753   9.3021673  39.4348553  12.7042753  10.0791673
  47.2898553  13.9052753   5.7421673  46.5758553  13.4342753   5.9131673
  47.1278553  14.2462753   4.9561673  47.1608553  13.8862753   5.6511673
  47.7328553  21.8492753   4.1221673  48.2088553  21.1202753   4.0741673
  46.9118553  21.5632753   4.0461673  47.6818553  21.6992753   4.1031673
  41.2038553  23.7612753  14.9611673  40.4088553  23.6972753  15.3121673
  41.2748553  24.6082753  14.7661673  41.0968553  23.8762753  14.9841673
  32.1278553  13.1192753  16.2081673  31.9878553  13.9142753  15.8771673
  31.3418553  12.8762753  16.4971673  31.9908553  13.2012753  16.2021673
  37.0338553  29.9682753  10.2781673  37.0448553  30.0272753  11.1481673
  36.6088553  29.2212753  10.1281673  36.9728553  29.8662753  10.3841673
  35.1918553  15.8632753   3.4331673  35.3178553  15.5342753   2.6351673
  34.3798553  15.6142753   3.6321673  35.0908553  15.7782753   3.3451673
  43.9488553  23.0162753   6.4771673  44.0248553  23.3572753   7.2761673
  44.1178553  22.1692753   6.5981673  43.9848553  22.9412753   6.6131673
  41.4708553  22.2902753   6.0421673  41.1728553  21.9752753   6.7991673
  42.1658553  22.7632753   6.2771673  41.5298553  22.3132753   6.1891673
  41.6928553  26.4082753  14.0691673  42.3798553  26.2942753  14.5941673
  41.8268553  27.1992753  13.7251673  41.8138553  26.5082753  14.0961673
  49.8688553  19.0172753  15.8801673  49.0138553  18.8952753  16.0061673
  50.0218553  18.6222753  15.1171673  49.7648553  18.9402753  15.7861673
  44.3818553  19.6822753  14.4561673  44.1268553  18.9632753  14.8781673
  45.2028553  19.7982753  14.7261673  44.4658553  19.5932753  14.5581673
  33.7978553  29.4662753  15.7201673  33.1438553  28.8972753  15.8181673
  33.4228553  30.2392753  15.8711673  33.6458553  29.4962753  15.7571673
  42.3158553  20.8722753  17.6431673  42.6388553  21.5582753  17.2111673
  41.6118553  21.1952753  18.0451673  42.2588553  21.0212753  17.6381673
  45.3998553  29.2462753   8.5721673  44.9488553  29.8892753   8.9511673
  46.1078553  29.1672753   9.0771673  45.4378553  29.3292753   8.7031673
  42.1008553  24.3362753  11.5021673  41.4068553  24.7382753  11.8451673
  42.7778553  24.7692753  11.8411673  42.0978553  24.4592753  11.6031673
  47.4778553  26.9292753  18.0821673  48.2538553  26.5392753  18.1651673
  47.0088553  26.5932753  18.7371673  47.5228553  26.8222753  18.1911673
  35.1688553  17.8742753  13.8491673  35.5438553  18.4932753  13.3621673
  35.8428553  17.4002753  14.1341673  35.3238553  17.8962753  13.8191673
  32.9438553  16.3222753  13.1241673  33.0208553  16.1532753  12.2711673
  33.6898553  16.7282753  13.3211673  33.0648553  16.3572753  13.0271673
  48.5028553  18.9622753   3.5641673  48.6058553  18.9042753   2.7001673
  49.2438553  18.6302753   3.8821673  48.6278553  18.9052753   3.4831673
  35.4978553  13.7322753  15.5351673  35.4168553  12.8882753  15.7411673
  35.1838553  13.7762753  14.7221673  35.4398553  13.6142753  15.4451673
  42.4228553  25.9272753   4.6711673  42.2178553  26.7602753   4.5121673
  41.6478553  25.5452753   4.7931673  42.2778553  25.9942753   4.6661673
  47.6048553  19.1082753  12.9201673  47.6028553  18.2452753  13.0441673
  47.6718553  19.4322753  13.7271673  47.6148553  19.0282753  13.0571673
  32.3408553  21.5482753  13.3481673  32.6608553  21.7672753  12.5671673
  32.2408553  20.6832753  13.2931673  32.3728553  21.4532753  13.2251673
  43.4838553  13.9082753  16.7021673  43.5758553  14.6202753  17.1961673
  42.8468553  13.4632753  17.0991673  43.4028553  13.9472753  16.8341673
  42.4778553  14.0982753   7.5561673  41.7778553  14.6162753   7.5001673
  42.5158553  13.7182753   6.7721673  42.3798553  14.1192753   7.4321673
  46.0758553  14.6142753  10.3561673  46.9308553  14.7132753  10.5011673
  45.7068553  15.1672753  10.9211673  46.1478553  14.7112753  10.4611673
  37.1038553  20.8402753  14.7331673  36.7078553  21.6142753  14.8081673
  36.6978553  20.4672753  14.0571673  36.9858553  20.8992753  14.6441673
  46.3798553  19.8942753   8.8471673  47.0458553  20.4352753   9.0071673
  46.0348553  20.2052753   8.1081673  46.4268553  20.0202753   8.7621673
  46.6928553  27.9602753   4.6541673  46.5188553  27.3062753   5.2041673
  47.4058553  27.6892753   4.2311673  46.7728553  27.8232753   4.6731673
  37.5328553  13.8172753  12.1831673  36.6688553  13.9012753  12.2631673
  37.7528553  13.3032753  12.8521673  37.4378553  13.7542753  12.2941673
  49.5508553  12.4522753  13.5121673  49.4988553  12.4082753  14.3821673
  50.2378553  11.9492753  13.3221673  49.6448553  12.3722753  13.6121673
  41.6358553  14.5652753  10.5571673  40.8988553  14.1112753  10.6701673
  42.2068553  14.1632753  11.0801673  41.6108553  14.4382753  10.6511673
  44.3678553  25.4132753  12.3451673  44.5738553  25.7142753  13.1371673
  44.3068553  26.1352753  11.8601673  44.3888553  25.5642753  12.3901673
  43.9018553  29.6272753  16.5911673  43.1488553  29.6092753  16.1501673
  44.0698553  30.4792753  16.6751673  43.8158553  29.7502753  16.5381673
  39.1388553  18.8942753  15.7611673  38.8168553  18.3182753  15.1911673
  38.7798553  19.6492753  15.5151673  39.0388553  18.9202753  15.6411673
  49.1798553  24.0522753  11.8031673  49.1478553  23.1902753  11.6681673
  48.4868553  24.3542753  11.3691673  49.0728553  23.9692753  11.7191673
  37.5738553  29.2502753  16.0091673  37.6148553  29.3762753  16.8721673
  38.2248553  28.6902753  15.8531673  37.6758553  29.1862753  16.1141673
  47.2848553  27.3122753  10.6001673  47.8118553  27.2292753   9.9091673
  46.8938553  26.5342753  10.6541673  47.3048553  27.1852753  10.5061673
  34.7528553  13.9002753  12.8311673  34.4098553  13.1332753  12.5971673
  34.0578553  14.4242753  12.8951673  34.5998553  13.8642753  12.8061673
  43.7988553  12.7562753   9.8081673  44.4688553  13.3002753   9.9351673
  43.2958553  13.1802753   9.2351673  43.8238553  12.8992753   9.7421673
  35.1668553  27.6332753  17.3691673  35.7618553  28.0642753  17.8411673
  34.8028553  28.2572753  16.8801673  35.2008553  27.7892753  17.3661673
  43.1578553  18.5642753   7.3011673  43.7088553  17.9572753   7.6011673
  42.7328553  18.8272753   8.0161673  43.1768553  18.5132753   7.4501673
  33.4058553  17.2142753   6.7871673  33.0378553  17.5162753   7.5181673
  33.9398553  16.5852753   7.0711673  33.4298553  17.1662753   6.9371673
  33.0938553  25.6222753  14.2981673  32.5198553  26.0382753  14.8071673
  33.8268553  26.0872753  14.3931673  33.1178553  25.7522753  14.3871673
  45.1278553  20.3952753   3.8631673  45.1958553  19.5452753   4.0441673
  44.3048553  20.4812753   3.5851673  45.0158553  20.2822753   3.8491673
  34.8798553  28.8892753   3.0731673  34.7348553  29.0452753   2.2271673
  35.7458553  28.9682753   3.1511673  34.9868553  28.9242753   2.9601673
  39.0468553  21.2862753   2.8011673  39.1468553  21.4252753   1.9461673
  39.8648553  21.2262753   3.0971673  39.1818553  21.2972753   2.7181673
  48.4018553  21.7682753  17.0141673  49.0358553  21.5982753  17.5881673
  48.8188553  22.1712753  16.3621673  48.5568553  21.8032753  17.0031673
  44.2818553  25.6152753   2.6031673  44.0308553  25.4872753   3.4291673
  43.9648553  24.9202753   2.1821673  44.1978553  25.4942753   2.6631673
  49.0268553  16.3322753  17.7521673  48.8308553  16.9762753  18.3071673
  48.3048553  15.8422753  17.7441673  48.8918553  16.3552753  17.8331673
  48.9258553  17.2732753  10.7231673  48.0928553  17.5232753  10.6511673
  48.8698553  16.4332753  10.9521673  48.7948553  17.1862753  10.7461673
  38.1858553  14.2612753  15.9171673  38.4198553  13.6852753  15.3041673
  37.3438553  14.0802753  16.0581673  38.0958553  14.1492753  15.8471673
  45.8128553  21.8792753  18.3691673  46.6838553  21.8432753  18.3331673
  45.5938553  22.2992753  17.6371673  45.9098553  21.9352753  18.2561673
  35.5668553  27.7042753   9.5501673  35.4878553  26.8942753   9.2341673
  35.1228553  28.1912753   8.9781673  35.4898553  27.6562753   9.4191673
  41.1678553  23.8232753   2.0331673  41.8848553  23.4762753   1.6771673
  41.1338553  24.6232753   1.6851673  41.2688553  23.8902753   1.9291673
  33.1388553  29.9482753  13.1311673  33.6318553  29.8922753  13.8491673
  33.3268553  29.2152753  12.6961673  33.2398553  29.8312753  13.1731673
  32.2548553   5.0421673  81.4301313  31.8138553   5.1601673  82.1731313
  31.9718553   4.2671673  81.1451313  32.1478553   4.9451673  81.4981313
  48.5298553   8.3431673  78.9451313  49.2308553   7.8241673  78.9411313
  47.9428553   7.8981673  78.4761313  48.5468553   8.2001673  78.8751313
  35.1368553   4.0971673  76.6091313  34.7448553   3.7261673  75.9231313
  35.0568553   3.4991673  77.2381313  35.0668553   3.9541673  76.6001313
  34.7638553   5.7381673  80.5091313  35.3718553   5.5681673  81.1121313
  34.0128553   5.5981673  80.9301313  34.7428553   5.6921673  80.6601313
  33.6548553   8.8291673  76.5861313  34.1218553   8.9131673  75.8541313
  34.1098553   8.2511673  77.0551313  33.7908553   8.7561673  76.5471313
  32.1948553   7.7771673  87.6851313  32.3238553   7.4971673  88.5011313
  31.5848553   7.2361673  87.3761313  32.1238553   7.6561673  87.7601313
  33.6408553   2.2981673  81.8871313  33.1788553   1.9061673  81.2601313
  34.3408553   1.7851673  81.9791313  33.6758553   2.1651673  81.8081313
  38.7508553   8.4941673  90.0151313  38.8888553   9.2541673  89.6081313
  39.5418553   8.1291673  90.0421313  38.8878553   8.5531673  89.9591313
  39.8458553   6.3791673  84.5201313  40.1938553   5.5801673  84.5501313
  40.5108553   6.8831673  84.2651313  39.9958553   6.3351673  84.4871313
  39.9028553   5.8281673  80.7311313  40.2338553   5.1841673  81.2171313
  40.1428553   5.6171673  79.9201313  39.9868553   5.7021673  80.6831313
  32.0068553   9.7691673  82.8001313  31.4148553  10.3271673  82.4871313
  32.4328553   9.5001673  82.0881313  31.9828553   9.8111673  82.6491313
  37.8468553   7.6131673  80.2801313  37.2678553   7.3381673  80.8721313
  38.4708553   7.0041673  80.3051313  37.8538553   7.4831673  80.3711313
  43.9898553   9.9011673  77.8021313  44.7168553  10.3731673  77.9041313
  44.2188553   9.1071673  78.0821313  44.1318553   9.8541673  77.8591313
  42.1578553  10.2931673  79.7921313  42.3718553  10.8201673  80.4541313
  42.9248553  10.1191673  79.4131313  42.3028553  10.3451673  79.8341313
  33.5518553   8.4391673  80.7311313  34.2078553   7.8641673  80.7461313
  33.9408553   9.1881673  80.5101313  33.7068553   8.4641673  80.7011313
  44.5968553  10.3031673  88.0971313  45.3408553  10.7591673  88.0871313
  44.4758553  10.0891673  87.2601313  44.6888553  10.3391673  87.9721313
  34.3698553   6.9261673  84.2311313  34.7928553   6.5701673  83.5571313
  34.6938553   6.5041673  84.9231313  34.4798553   6.8111673  84.2341313
  37.6008553   9.7781673  83.5271313  38.4448553   9.8821673  83.3321313
  37.3038553  10.5961673  83.5951313  37.6818553   9.9141673  83.5081313
  46.1708553  11.4881673  78.2021313  46.8358553  11.3401673  77.6571313
  46.5308553  11.4051673  78.9921313  46.3228553  11.4541673  78.2381313
  36.5988553  10.9971673  89.2671313  36.8908553  10.9301673  90.0871313
  35.9728553  10.3921673  89.2221313  36.5498553  10.8981673  89.3821313
  43.8508553   7.4881673  91.8011313  43.8168553   7.8701673  92.5851313
  44.7048553   7.4461673  91.6301313  43.9718553   7.5381673  91.8921313
  40.9888553   7.6851673  76.5511313  40.8078553   8.2301673  77.2081313
  41.7548553   7.9751673  76.2501313  41.0748553   7.8091673  76.6041313
  34.5918553   9.1591673  88.3891313  33.8938553   8.6511673  88.5151313
  34.8518553   8.9541673  87.5811313  34.5268553   9.0541673  88.2881313
  42.3028553  10.6521673  89.2991313  43.0708553  10.5721673  88.8931313
  41.7198553  10.5311673  88.6611313  42.3298553  10.6221673  89.1451313
  48.5798553  11.2551673  82.2001313  48.1248553  11.9721673  82.4011313
  47.9658553  10.6841673  81.9581313  48.4218553  11.2771673  82.1941313
  45.5768553   7.1001673  81.7441313  46.2778553   6.6181673  81.9331313
  44.9168553   6.5311673  81.7891313  45.5828553   6.9451673  81.7781313
  35.9528553   8.0101673  90.9561313  36.7938553   8.0731673  90.7341313
  35.9158553   8.4071673  91.7321313  36.0718553   8.0781673  91.0381313
  37.9158553   3.5211673  85.7051313  38.0878553   3.3111673  86.5341313
  37.2608553   2.9871673  85.4891313  37.8448553   3.4111673  85.7961313
  38.6658553   3.4591673  88.2951313  38.7188553   4.3061673  88.4971313
  38.3808553   3.0891673  89.0321313  38.6318553   3.5291673  88.4331313
  44.8428553   4.1541673  87.4251313  44.3288553   3.7421673  87.9961313
  44.7168553   4.9981673  87.6061313  44.7488553   4.2181673  87.5361313
  48.0958553   4.5931673  77.5521313  48.2148553   4.3061673  78.3671313
  48.9028553   4.6141673  77.2221313  48.2318553   4.5541673  77.6241313
  35.2318553   4.3251673  82.8831313  36.0828553   4.2451673  82.7101313
  34.8748553   3.6431673  82.4711313  35.3048553   4.2121673  82.7961313
  33.9988553  11.0501673  84.1201313  33.3258553  10.5521673  83.8751313
  34.4018553  11.2351673  83.3691313  33.9588553  11.0041673  83.9731313
  50.3298553   9.1021673  91.8061313  49.6478553   9.4121673  91.3591313
  49.9608553   8.6441673  92.4511313  50.1738553   9.0801673  91.8351313
  37.5998553   4.3321673  81.1181313  38.3128553   4.8271673  81.2081313
  37.8218553   3.7651673  80.4921313  37.7378553   4.3211673  81.0391313
  31.7558553   5.9751673  84.4381313  31.0888553   6.4631673  84.7141313
  32.4358553   6.5201673  84.4671313  31.7578553   6.1271673  84.4831313
  31.8218553   2.6591673  79.5411313  31.6368553   1.8201673  79.6931313
  32.4808553   2.6231673  78.9711313  31.8918553   2.5301673  79.4791313
  42.1228553   8.0351673  83.4451313  41.5998553   8.6691673  83.1521313
  42.4328553   7.6711673  82.7161313  42.0908553   8.0751673  83.2941313
  31.9938553   6.8231673  79.1161313  32.5458553   7.3921673  79.4801313
  31.7618553   6.3081673  79.7811313  32.0408553   6.8311673  79.2681313
  36.1978553   5.8231673  86.2051313  36.6648553   6.1121673  86.8831313
  36.7698553   5.3451673  85.7511313  36.3518553   5.7951673  86.2381313
  31.8238553   5.2721673  76.7441313  32.5798553   4.8401673  76.8021313
  31.8388553   5.8041673  77.4351313  31.9378553   5.2871673  76.8551313
  32.7638553   3.4931673  84.7491313  33.1948553   3.3641673  84.0021313
  32.5588553   4.3411673  84.7231313  32.7968553   3.5991673  84.6351313
  48.1638553   9.4841673  89.8961313  47.4928553   9.9981673  90.1141313
  48.2268553   9.5841673  89.0321313  48.0738553   9.5751673  89.8011313
  36.8478553   7.0091673  83.0311313  36.9738553   7.8521673  83.2181313
  37.5158553   6.6101673  83.4271313  36.9658553   7.0751673  83.1171313
  40.1598553  10.2331673  87.4921313  39.8828553   9.5921673  86.9691313
  39.9518553  10.9591673  87.0541313  40.0888553  10.2461673  87.3501313
  45.4618553   5.0161673  91.9171313  45.9458553   5.7341673  92.0151313
  45.8558553   4.5891673  91.2661313  45.5918553   5.0591673  91.8351313
  42.9188553   1.7771673  78.0061313  42.9108553   2.4991673  77.5161313
  42.2798553   1.9121673  78.5831313  42.8238553   1.9041673  78.0191313
  47.8908553   5.6471673  81.9871313  48.2468553   5.2971673  82.7021313
  47.8828553   4.9861673  81.4171313  47.9428553   5.4971673  82.0081313
  43.9358553   8.7131673  85.8311313  43.3328553   8.4171673  85.2741313
  44.4808553   9.1651673  85.3221313  43.9268553   8.7361673  85.6731313
  43.9488553   5.5641673  85.2311313  43.1518553   5.7881673  85.5051313
  44.2068553   4.9701673  85.8161313  43.8688553   5.5091673  85.3581313
  37.8408553  10.3761673  79.6791313  37.6938553   9.6001673  80.0501313
  38.5298553  10.2291673  79.1641313  37.9208553  10.2391673  79.6581313
  40.1328553   9.8921673  78.0811313  40.7548553  10.0551673  78.6711313
  40.1688553  10.5831673  77.5491313  40.2298553  10.0181673  78.0901313
  47.2088553   3.5621673  90.0771313  47.2638553   3.6871673  89.2151313
  47.9618553   3.8821673  90.3791313  47.3278553   3.6271673  89.9941313
  42.9398553   3.3681673  89.6771313  42.7848553   3.9781673  90.2811313
  43.4738553   2.8101673  90.0831313  42.9958553   3.3761673  89.8261313
  46.5498553   6.0971673  86.2041313  46.0708553   6.3951673  85.5381313
  46.1938553   5.3211673  86.3821313  46.4268553   6.0261673  86.1321313
  40.5468553   3.8151673  84.7661313  39.6998553   3.6211673  84.8471313
  40.8708553   3.6501673  85.5591313  40.4688553   3.7621673  84.8951313
  37.2988553  10.5451673  75.6521313  37.7378553   9.8481673  75.9401313
  37.5058553  11.1691673  76.2251313  37.3948553  10.5341673  75.7791313
  34.3948553   3.5081673  87.0821313  35.1168553   3.9961673  87.0451313
  34.1248553   3.4781673  86.2531313  34.4618553   3.5761673  86.9541313
  50.2418553  10.2631673  78.1441313  50.9358553   9.7961673  77.8961313
  49.7028553   9.6651673  78.4811313  50.2648553  10.1051673  78.1571313
  47.4808553   3.0391673  87.3231313  47.4738553   2.2631673  87.7211313
  46.6398553   3.2731673  87.3161313  47.3558553   2.9591673  87.3811313
  33.7898553   4.5601673  91.3601313  33.3688553   4.0421673  90.7991313
  33.4378553   5.3461673  91.2171313  33.6758553   4.6001673  91.2561313
  48.7368553   3.1101673  84.7601313  48.4508553   3.5111673  85.4801313
  49.5968553   3.0481673  84.8871313  48.8218553   3.1601673  84.8851313
  49.8678553   8.7431673  85.2891313  50.1578553   9.0001673  84.5081313
  50.5628553   8.8391673  85.8081313  50.0138553   8.7951673  85.2501313
  46.4728553   7.3461673  77.2711313  46.8068553   6.5401673  77.3061313
  45.7178553   7.2741673  77.7011313  46.4108553   7.2161673  77.3401313
  49.3948553   5.1401673  90.6821313  50.0228553   4.5911673  90.4261313
  49.3338553   5.7051673  90.0201313  49.4788553   5.1431673  90.5461313
  43.8468553   5.2211673  76.6741313  44.5308553   4.7071673  76.5051313
  43.4298553   5.2671673  75.9091313  43.8858553   5.1521673  76.5361313
  38.5288553   6.3711673  87.9781313  38.2308553   6.9631673  88.5451313
  38.5838553   6.8131673  87.2291313  38.4928553   6.5241673  87.9511313
  36.5078553   5.3211673  91.3761313  35.7018553   5.0311673  91.5431313
  36.4188553   6.1891673  91.3821313  36.3758553   5.4061673  91.4011313
  41.0448553   2.7941673  87.4691313  41.5208553   3.1681673  88.0971313
  40.2218553   2.9281673  87.7281313  40.9938553   2.8691673  87.6001313
  40.3088553  10.1871673  82.6971313  40.8548553  10.8661673  82.7511313
  39.9588553  10.2691673  81.9021313  40.3378553  10.3001673  82.5871313
  38.4918553   8.4151673  86.0861313  37.8678553   8.9971673  85.9041313
  38.7398553   8.1291673  85.3001313  38.4358553   8.4591673  85.9431313
  46.7098553   7.5991673  91.5791313  47.0558553   7.8691673  92.3331313
  47.0038553   8.1811673  90.9991313  46.8048553   7.7251673  91.6051313
  40.0858553   3.1911673  76.0011313  39.2808553   3.0141673  75.7161313
  40.0528553   4.0421673  76.1931313  39.9618553   3.2901673  75.9881313
  41.1448553  10.0641673  91.9661313  41.6228553   9.4641673  91.5501313
  40.7938553   9.6211673  92.6311313  41.1638553   9.9101673  92.0031313
  47.7328553   3.3711673  80.1471313  48.2088553   2.6421673  80.0991313
  46.9118553   3.0851673  80.0711313  47.6818553   3.2211673  80.1281313
  41.2038553   5.2831673  90.9861313  40.4088553   5.2191673  91.3371313
  41.2748553   6.1301673  90.7911313  41.0968553   5.3981673  91.0091313
  37.0338553  11.4901673  86.3031313  37.0448553  11.5491673  87.1731313
  36.6088553  10.7431673  86.1531313  36.9728553  11.3881673  86.4091313
  43.9488553   4.5381673  82.5021313  44.0248553   4.8791673  83.3011313
  44.1178553   3.6911673  82.6231313  43.9848553   4.4631673  82.6381313
  41.4708553   3.8121673  82.0671313  41.1728553   3.4971673  82.8241313
  42.1658553   4.2851673  82.3021313  41.5298553   3.8351673  82.2141313
  41.6928553   7.9301673  90.0941313  42.3798553   7.8161673  90.6191313
  41.8268553   8.7211673  89.7501313  41.8138553   8.0301673  90.1211313
  33.7978553  10.9881673  91.7451313  33.1438553  10.4191673  91.8431313
  33.4228553  11.7611673  91.8961313  33.6458553  11.0181673  91.7821313
  45.3998553  10.7681673  84.5971313  44.9488553  11.4111673  84.9761313
  46.1078553  10.6891673  85.1021313  45.4378553  10.8511673  84.7281313
  42.1008553   5.8581673  87.5271313  41.4068553   6.2601673  87.8701313
  42.7778553   6.2911673  87.8661313  42.0978553   5.9811673  87.6281313
  42.4228553   7.4491673  80.6961313  42.2178553   8.2821673  80.5371313
  41.6478553   7.0671673  80.8181313  42.2778553   7.5161673  80.6911313
  32.3408553   3.0701673  89.3731313  32.6608553   3.2891673  88.5921313
  32.2408553   2.2051673  89.3181313  32.3728553   2.9751673  89.2501313
  37.7848553   7.7111673  77.1051313  38.2258553   7.7911673  77.8531313
  36.9798553   7.4951673  77.3631313  37.7308553   7.6911673  77.2541313
  37.1038553   2.3621673  90.7581313  36.7078553   3.1361673  90.8331313
  36.6978553   1.9891673  90.0821313  36.9858553   2.4211673  90.6691313
  46.6928553   9.4821673  80.6791313  46.5188553   8.8281673  81.2291313
  47.4058553   9.2111673  80.2561313  46.7728553   9.3451673  80.6981313
  35.1138553   6.7811673  77.7061313  34.8698553   6.4741673  78.4861313
  35.0808553   6.0781673  77.1901313  35.0728553   6.6321673  77.7451313
  37.9328553   5.0261673  76.4491313  37.1148553   4.7581673  76.5891313
  37.9048553   5.8781673  76.6341313  37.8078553   5.1131673  76.4971313
  44.3678553   6.9351673  88.3701313  44.5738553   7.2361673  89.1621313
  44.3068553   7.6571673  87.8851313  44.3888553   7.0861673  88.4151313
  49.1798553   5.5741673  87.8281313  49.1478553   4.7121673  87.6931313
  48.4868553   5.8761673  87.3941313  49.0728553   5.4911673  87.7441313
  47.2848553   8.8341673  86.6251313  47.8118553   8.7511673  85.9341313
  46.8938553   8.0561673  86.6791313  47.3048553   8.7071673  86.5311313
  33.0938553   7.1441673  90.3231313  32.5198553   7.5601673  90.8321313
  33.8268553   7.6091673  90.4181313  33.1178553   7.2741673  90.4121313
  34.8798553  10.4111673  79.0981313  34.7348553  10.5671673  78.2521313
  35.7458553  10.4901673  79.1761313  34.9868553  10.4461673  78.9851313
  39.0468553   2.8081673  78.8261313  39.1468553   2.9471673  77.9711313
  39.8648553   2.7481673  79.1221313  39.1818553   2.8191673  78.7431313
  48.2068553  10.8721673  76.3061313  48.8438553  10.7381673  76.8871313
  47.8658553  10.0781673  76.1891313  48.2508553  10.7351673  76.3741313
  44.2818553   7.1371673  78.6281313  44.0308553   7.0091673  79.4541313
  43.9648553   6.4421673  78.2071313  44.1978553   7.0161673  78.6881313
  35.5668553   9.2261673  85.5751313  35.4878553   8.4161673  85.2591313
  35.1228553   9.7131673  85.0031313  35.4898553   9.1781673  85.4441313
  41.1678553   5.3451673  78.0581313  41.8848553   4.9981673  77.7021313
  41.1338553   6.1451673  77.7101313  41.2688553   5.4121673  77.9541313
  33.1388553  11.4701673  89.1561313  33.6318553  11.4141673  89.8741313
  33.3268553  10.7371673  88.7211313  33.2398553  11.3531673  89.1981313
  32.2548553   5.0421673  62.4238903  31.8138553   5.1601673  63.1668903
  31.9718553   4.2671673  62.1388903  32.1478553   4.9451673  62.4918903
  48.5298553   8.3431673  59.9388903  49.2308553   7.8241673  59.9348903
  47.9428553   7.8981673  59.4698903  48.5468553   8.2001673  59.8688903
  35.1368553   4.0971673  57.6028903  34.7448553   3.7261673  56.9168903
  35.0568553   3.4991673  58.2318903  35.0668553   3.9541673  57.5938903
  34.7638553   5.7381673  61.5028903  35.3718553   5.5681673  62.1058903
  34.0128553   5.5981673  61.9238903  34.7428553   5.6921673  61.6538903
  33.6548553   8.8291673  57.5798903  34.1218553   8.9131673  56.8478903
  34.1098553   8.2511673  58.0488903  33.7908553   8.7561673  57.5408903
  32.1948553   7.7771673  68.6788903  32.3238553   7.4971673  69.4948903
  31.5848553   7.2361673  68.3698903  32.1238553   7.6561673  68.7538903
  38.7688553   5.3021673  73.7458903  38.5328553   5.2991673  74.5858903
  38.0208553   5.1541673  73.3218903  38.6228553   5.2791673  73.8068903
  33.6408553   2.2981673  62.8808903  33.1788553   1.9061673  62.2538903
  34.3408553   1.7851673  62.9728903  33.6758553   2.1651673  62.8018903
  38.7508553   8.4941673  71.0088903  38.8888553   9.2541673  70.6018903
  39.5418553   8.1291673  71.0358903  38.8878553   8.5531673  70.9528903
  39.8458553   6.3791673  65.5138903  40.1938553   5.5801673  65.5438903
  40.5108553   6.8831673  65.2588903  39.9958553   6.3351673  65.4808903
  39.9028553   5.8281673  61.7248903  40.2338553   5.1841673  62.2108903
  40.1428553   5.6171673  60.9138903  39.9868553   5.7021673  61.6768903
  32.0068553   9.7691673  63.7938903  31.4148553  10.3271673  63.4808903
  32.4328553   9.5001673  63.0818903  31.9828553   9.8111673  63.6428903
  37.8468553   7.6131673  61.2738903  37.2678553   7.3381673  61.8658903
  38.4708553   7.0041673  61.2988903  37.8538553   7.4831673  61.3648903
  43.9898553   9.9011673  58.7958903  44.7168553  10.3731673  58.8978903
  44.2188553   9.1071673  59.0758903  44.1318553   9.8541673  58.8528903
  42.1578553  10.2931673  60.7858903  42.3718553  10.8201673  61.4478903
  42.9248553  10.1191673  60.4068903  42.3028553  10.3451673  60.8278903
  33.5518553   8.4391673  61.7248903  34.2078553   7.8641673  61.7398903
  33.9408553   9.1881673  61.5038903  33.7068553   8.4641673  61.6948903
  44.5968553  10.3031673  69.0908903  45.3408553  10.7591673  69.0808903
  44.4758553  10.0891673  68.2538903  44.6888553  10.3391673  68.9658903
  34.3698553   6.9261673  65.2248903  34.7928553   6.5701673  64.5508903
  34.6938553   6.5041673  65.9168903  34.4798553   6.8111673  65.2278903
  37.6008553   9.7781673  64.5208903  38.4448553   9.8821673  64.3258903
  37.3038553  10.5961673  64.5888903  37.6818553   9.9141673  64.5018903
  46.1708553  11.4881673  59.1958903  46.8358553  11.3401673  58.6508903
  46.5308553  11.4051673  59.9858903  46.3228553  11.4541673  59.2318903
  36.5988553  10.9971673  70.2608903  36.8908553  10.9301673  71.0808903
  35.9728553  10.3921673  70.2158903  36.5498553  10.8981673  70.3758903
  43.8508553   7.4881673  72.7948903  43.8168553   7.8701673  73.5788903
  44.7048553   7.4461673  72.6238903  43.9718553   7.5381673  72.8858903
  40.9888553   7.6851673  57.5448903  40.8078553   8.2301673  58.2018903
  41.7548553   7.9751673  57.2438903  41.0748553   7.8091673  57.5978903
  34.5918553   9.1591673  69.3828903  33.8938553   8.6511673  69.5088903
  34.8518553   8.9541673  68.5748903  34.5268553   9.0541673  69.2818903
  42.3028553  10.6521673  70.2928903  43.0708553  10.5721673  69.8868903
  41.7198553  10.5311673  69.6548903  42.3298553  10.6221673  70.1388903
  48.5798553  11.2551673  63.1938903  48.1248553  11.9721673  63.3948903
  47.9658553  10.6841673  62.9518903  48.4218553  11.2771673  63.1878903
  45.5768553   7.1001673  62.7378903  46.2778553   6.6181673  62.9268903
  44.9168553   6.5311673  62.7828903  45.5828553   6.9451673  62.7718903
  35.9528553   8.0101673  71.9498903  36.7938553   8.0731673  71.7278903
  35.9158553   8.4071673  72.7258903  36.0718553   8.0781673  72.0318903
  37.9158553   3.5211673  66.6988903  38.0878553   3.3111673  67.5278903
  37.2608553   2.9871673  66.4828903  37.8448553   3.4111673  66.7898903
  38.6658553   3.4591673  69.2888903  38.7188553   4.3061673  69.4908903
  38.3808553   3.0891673  70.0258903  38.6318553   3.5291673  69.4268903
  44.8428553   4.1541673  68.4188903  44.3288553   3.7421673  68.9898903
  44.7168553   4.9981673  68.5998903  44.7488553   4.2181673  68.5298903
  31.4868553   7.8301673  75.4998903  32.2428553   8.1791673  75.7578903
  31.6638553   6.9771673  75.4428903  31.6248553   7.7551673  75.5298903
  48.0958553   4.5931673  58.5458903  48.2148553   4.3061673  59.3608903
  48.9028553   4.6141673  58.2158903  48.2318553   4.5541673  58.6178903
  35.2318553   4.3251673  63.8768903  36.0828553   4.2451673  63.7038903
  34.8748553   3.6431673  63.4648903  35.3048553   4.2121673  63.7898903
  33.9988553  11.0501673  65.1138903  33.3258553  10.5521673  64.8688903
  34.4018553  11.2351673  64.3628903  33.9588553  11.0041673  64.9668903
  50.3298553   9.1021673  72.7998903  49.6478553   9.4121673  72.3528903
  49.9608553   8.6441673  73.4448903  50.1738553   9.0801673  72.8288903
  37.5998553   4.3321673  62.1118903  38.3128553   4.8271673  62.2018903
  37.8218553   3.7651673  61.4858903  37.7378553   4.3211673  62.0328903
  31.7558553   5.9751673  65.4318903  31.0888553   6.4631673  65.7078903
  32.4358553   6.5201673  65.4608903  31.7578553   6.1271673  65.4768903
  31.8218553   2.6591673  60.5348903  31.6368553   1.8201673  60.6868903
  32.4808553   2.6231673  59.9648903  31.8918553   2.5301673  60.4728903
  42.1228553   8.0351673  64.4388903  41.5998553   8.6691673  64.1458903
  42.4328553   7.6711673  63.7098903  42.0908553   8.0751673  64.2878903
  31.9938553   6.8231673  60.1098903  32.5458553   7.3921673  60.4738903
  31.7618553   6.3081673  60.7748903  32.0408553   6.8311673  60.2618903
  36.1978553   5.8231673  67.1988903  36.6648553   6.1121673  67.8768903
  36.7698553   5.3451673  66.7448903  36.3518553   5.7951673  67.2318903
  31.8238553   5.2721673  57.7378903  32.5798553   4.8401673  57.7958903
  31.8388553   5.8041673  58.4288903  31.9378553   5.2871673  57.8488903
  32.7638553   3.4931673  65.7428903  33.1948553   3.3641673  64.9958903
  32.5588553   4.3411673  65.7168903  32.7968553   3.5991673  65.6288903
  48.1638553   9.4841673  70.8898903  47.4928553   9.9981673  71.1078903
  48.2268553   9.5841673  70.0258903  48.0738553   9.5751673  70.7948903
  36.8478553   7.0091673  64.0248903  36.9738553   7.8521673  64.2118903
  37.5158553   6.6101673  64.4208903  36.9658553   7.0751673  64.1108903
  40.1598553  10.2331673  68.4858903  39.8828553   9.5921673  67.9628903
  39.9518553  10.9591673  68.0478903  40.0888553  10.2461673  68.3438903
  33.8588553   2.8111673  74.6528903  33.8218553   3.3121673  73.9388903
  34.1898553   2.0591673  74.3578903  33.9018553   2.7731673  74.5038903
  45.4618553   5.0161673  72.9108903  45.9458553   5.7341673  73.0088903
  45.8558553   4.5891673  72.2598903  45.5918553   5.0591673  72.8288903
  39.7578553   7.8611673  74.0878903  40.1118553   7.6831673  74.8648903
  39.3218553   7.1321673  73.8888903  39.7458553   7.7271673  74.1738903
  42.9188553   1.7771673  58.9998903  42.9108553   2.4991673  58.5098903
  42.2798553   1.9121673  59.5768903  42.8238553   1.9041673  59.0128903
  47.8908553   5.6471673  62.9808903  48.2468553   5.2971673  63.6958903
  47.8828553   4.9861673  62.4108903  47.9428553   5.4971673  63.0018903
  43.9358553   8.7131673  66.8248903  43.3328553   8.4171673  66.2678903
  44.4808553   9.1651673  66.3158903  43.9268553   8.7361673  66.6668903
  43.9488553   5.5641673  66.2248903  43.1518553   5.7881673  66.4988903
  44.2068553   4.9701673  66.8098903  43.8688553   5.5091673  66.3518903
  37.8408553  10.3761673  60.6728903  37.6938553   9.6001673  61.0438903
  38.5298553  10.2291673  60.1578903  37.9208553  10.2391673  60.6518903
  40.1328553   9.8921673  59.0748903  40.7548553  10.0551673  59.6648903
  40.1688553  10.5831673  58.5428903  40.2298553  10.0181673  59.0838903
  47.2088553   3.5621673  71.0708903  47.2638553   3.6871673  70.2088903
  47.9618553   3.8821673  71.3728903  47.3278553   3.6271673  70.9878903
  43.3998553   8.9111673  75.3478903  43.5638553   9.1941673  76.1568903
  43.6628553   9.5721673  74.8428903  43.4628553   9.0511673  75.3928903
  42.9398553   3.3681673  70.6708903  42.7848553   3.9781673  71.2748903
  43.4738553   2.8101673  71.0768903  42.9958553   3.3761673  70.8198903
  46.5498553   6.0971673  67.1978903  46.0708553   6.3951673  66.5318903
  46.1938553   5.3211673  67.3758903  46.4268553   6.0261673  67.1258903
  40.5468553   3.8151673  65.7598903  39.6998553   3.6211673  65.8408903
  40.8708553   3.6501673  66.5528903  40.4688553   3.7621673  65.8888903
  37.2988553  10.5451673  56.6458903  37.7378553   9.8481673  56.9338903
  37.5058553  11.1691673  57.2188903  37.3948553  10.5341673  56.7728903
  34.3948553   3.5081673  68.0758903  35.1168553   3.9961673  68.0388903
  34.1248553   3.4781673  67.2468903  34.4618553   3.5761673  67.9478903
  50.2418553  10.2631673  59.1378903  50.9358553   9.7961673  58.8898903
  49.7028553   9.6651673  59.4748903  50.2648553  10.1051673  59.1508903
  47.4808553   3.0391673  68.3168903  47.4738553   2.2631673  68.7148903
  46.6398553   3.2731673  68.3098903  47.3558553   2.9591673  68.3748903
  33.7898553   4.5601673  72.3538903  33.3688553   4.0421673  71.7928903
  33.4378553   5.3461673  72.2108903  33.6758553   4.6001673  72.2498903
  48.7368553   3.1101673  65.7538903  48.4508553   3.5111673  66.4738903
  49.5968553   3.0481673  65.8808903  48.8218553   3.1601673  65.8788903
  49.8678553   8.7431673  66.2828903  50.1578553   9.0001673  65.5018903
  50.5628553   8.8391673  66.8018903  50.0138553   8.7951673  66.2438903
  46.4728553   7.3461673  58.2648903  46.8068553   6.5401673  58.2998903
  45.7178553   7.2741673  58.6948903  46.4108553   7.2161673  58.3338903
  49.3948553   5.1401673  71.6758903  50.0228553   4.5911673  71.4198903
  49.3338553   5.7051673  71.0138903  49.4788553   5.1431673  71.5398903
  43.8468553   5.2211673  57.6678903  44.5308553   4.7071673  57.4988903
  43.4298553   5.2671673  56.9028903  43.8858553   5.1521673  57.5298903
  38.5288553   6.3711673  68.9718903  38.2308553   6.9631673  69.5388903
  38.5838553   6.8131673  68.2228903  38.4928553   6.5241673  68.9448903
  36.5078553   5.3211673  72.3698903  35.7018553   5.0311673  72.5368903
  36.4188553   6.1891673  72.3758903  36.3758553   5.4061673  72.3948903
  41.0448553   2.7941673  68.4628903  41.5208553   3.1681673  69.0908903
  40.2218553   2.9281673  68.7218903  40.9938553   2.8691673  68.5938903
  40.3088553  10.1871673  63.6908903  40.8548553  10.8661673  63.7448903
  39.9588553  10.2691673  62.8958903  40.3378553  10.3001673  63.5808903
  38.4918553   8.4151673  67.0798903  37.8678553   8.9971673  66.8978903
  38.7398553   8.1291673  66.2938903  38.4358553   8.4591673  66.9368903
  42.8008553   5.0491673  74.0688903  43.5578553   5.3351673  73.7428903
  42.2538553   5.1011673  73.3908903  42.8318553   5.0991673  73.9198903
  46.7098553   7.5991673  72.5728903  47.0558553   7.8691673  73.3268903
  47.0038553   8.1811673  71.9928903  46.8048553   7.7251673  72.5988903
  40.0858553   3.1911673  56.9948903  39.2808553   3.0141673  56.7098903
  40.0528553   4.0421673  57.1868903  39.9618553   3.2901673  56.9818903
  41.1448553  10.0641673  72.9598903  41.6228553   9.4641673  72.5438903
  40.7938553   9.6211673  73.6248903  41.1638553   9.9101673  72.9968903
  47.7328553   3.3711673  61.1408903  48.2088553   2.6421673  61.0928903
  46.9118553   3.0851673  61.0648903  47.6818553   3.2211673  61.1218903
  41.2038553   5.2831673  71.9798903  40.4088553   5.2191673  72.3308903
  41.2748553   6.1301673  71.7848903  41.0968553   5.3981673  72.0028903
  37.0338553  11.4901673  67.2968903  37.0448553  11.5491673  68.1668903
  36.6088553  10.7431673  67.1468903  36.9728553  11.3881673  67.4028903
  43.9488553   4.5381673  63.4958903  44.0248553   4.8791673  64.2948903
  44.1178553   3.6911673  63.6168903  43.9848553   4.4631673  63.6318903
  41.4708553   3.8121673  63.0608903  41.1728553   3.4971673  63.8178903
  42.1658553   4.2851673  63.2958903  41.5298553   3.8351673  63.2078903
  41.6928553   7.9301673  71.0878903  42.3798553   7.8161673  71.6128903
  41.8268553   8.7211673  70.7438903  41.8138553   8.0301673  71.1148903
  33.7978553  10.9881673  72.7388903  33.1438553  10.4191673  72.8368903
  33.4228553  11.7611673  72.8898903  33.6458553  11.0181673  72.7758903
  42.3158553   2.3941673  74.6618903  42.6388553   3.0801673  74.2298903
  41.6118553   2.7171673  75.0638903  42.2588553   2.5431673  74.6568903
  45.3998553  10.7681673  65.5908903  44.9488553  11.4111673  65.9698903
  46.1078553  10.6891673  66.0958903  45.4378553  10.8511673  65.7218903
  42.1008553   5.8581673  68.5208903  41.4068553   6.2601673  68.8638903
  42.7778553   6.2911673  68.8598903  42.0978553   5.9811673  68.6218903
  47.4778553   8.4511673  75.1008903  48.2538553   8.0611673  75.1838903
  47.0088553   8.1151673  75.7558903  47.5228553   8.3441673  75.2098903
  42.4228553   7.4491673  61.6898903  42.2178553   8.2821673  61.5308903
  41.6478553   7.0671673  61.8118903  42.2778553   7.5161673  61.6848903
  32.3408553   3.0701673  70.3668903  32.6608553   3.2891673  69.5858903
  32.2408553   2.2051673  70.3118903  32.3728553   2.9751673  70.2438903
  37.7848553   7.7111673  58.0988903  38.2258553   7.7911673  58.8468903
  36.9798553   7.4951673  58.3568903  37.7308553   7.6911673  58.2478903
  37.1038553   2.3621673  71.7518903  36.7078553   3.1361673  71.8268903
  36.6978553   1.9891673  71.0758903  36.9858553   2.4211673  71.6628903
  46.6928553   9.4821673  61.6728903  46.5188553   8.8281673  62.2228903
  47.4058553   9.2111673  61.2498903  46.7728553   9.3451673  61.6918903
  35.1138553   6.7811673  58.6998903  34.8698553   6.4741673  59.4798903
  35.0808553   6.0781673  58.1838903  35.0728553   6.6321673  58.7388903
  37.9328553   5.0261673  57.4428903  37.1148553   4.7581673  57.5828903
  37.9048553   5.8781673  57.6278903  37.8078553   5.1131673  57.4908903
  44.3678553   6.9351673  69.3638903  44.5738553   7.2361673  70.1558903
  44.3068553   7.6571673  68.8788903  44.3888553   7.0861673  69.4088903
  43.9018553  11.1491673  73.6098903  43.1488553  11.1311673  73.1688903
  44.0698553  12.0011673  73.6938903  43.8158553  11.2721673  73.5568903
  49.1798553   5.5741673  68.8218903  49.1478553   4.7121673  68.6868903
  48.4868553   5.8761673  68.3878903  49.0728553   5.4911673  68.7378903
  37.5738553  10.7721673  73.0278903  37.6148553  10.8981673  73.8908903
  38.2248553  10.2121673  72.8718903  37.6758553  10.7081673  73.1328903
  47.2848553   8.8341673  67.6188903  47.8118553   8.7511673  66.9278903
  46.8938553   8.0561673  67.6728903  47.3048553   8.7071673  67.5248903
  35.1668553   9.1551673  74.3878903  35.7618553   9.5861673  74.8598903
  34.8028553   9.7791673  73.8988903  35.2008553   9.3111673  74.3848903
  33.0938553   7.1441673  71.3168903  32.5198553   7.5601673  71.8258903
  33.8268553   7.6091673  71.4118903  33.1178553   7.2741673  71.4058903
  34.8798553  10.4111673  60.0918903  34.7348553  10.5671673  59.2458903
  35.7458553  10.4901673  60.1698903  34.9868553  10.4461673  59.9788903
  39.0468553   2.8081673  59.8198903  39.1468553   2.9471673  58.9648903
  39.8648553   2.7481673  60.1158903  39.1818553   2.8191673  59.7368903
  48.2068553  10.8721673  57.2998903  48.8438553  10.7381673  57.8808903
  47.8658553  10.0781673  57.1828903  48.2508553  10.7351673  57.3678903
  48.4018553   3.2901673  74.0328903  49.0358553   3.1201673  74.6068903
  48.8188553   3.6931673  73.3808903  48.5568553   3.3251673  74.0218903
  44.2818553   7.1371673  59.6218903  44.0308553   7.0091673  60.4478903
  43.9648553   6.4421673  59.2008903  44.1978553   7.0161673  59.6818903
  45.8128553   3.4011673  75.3878903  46.6838553   3.3651673  75.3518903
  45.5938553   3.8211673  74.6558903  45.9098553   3.4571673  75.2748903
  35.5668553   9.2261673  66.5688903  35.4878553   8.4161673  66.2528903
  35.1228553   9.7131673  65.9968903  35.4898553   9.1781673  66.4378903
  41.1678553   5.3451673  59.0518903  41.8848553   4.9981673  58.6958903
  41.1338553   6.1451673  58.7038903  41.2688553   5.4121673  58.9478903
  33.1388553  11.4701673  70.1498903  33.6318553  11.4141673  70.8678903
  33.3268553  10.7371673  69.7148903  33.2398553  11.3531673  70.1918903
  32.2548553   5.0421673  43.4176493  31.8138553   5.1601673  44.1606493
  31.9718553   4.2671673  43.1326493  32.1478553   4.9451673  43.4856493
  48.5298553   8.3431673  40.9326493  49.2308553   7.8241673  40.9286493
  47.9428553   7.8981673  40.4636493  48.5468553   8.2001673  40.8626493
  35.1368553   4.0971673  38.5966493  34.7448553   3.7261673  37.9106493
  35.0568553   3.4991673  39.2256493  35.0668553   3.9541673  38.5876493
  34.7638553   5.7381673  42.4966493  35.3718553   5.5681673  43.0996493
  34.0128553   5.5981673  42.9176493  34.7428553   5.6921673  42.6476493
  33.6548553   8.8291673  38.5736493  34.1218553   8.9131673  37.8416493
  34.1098553   8.2511673  39.0426493  33.7908553   8.7561673  38.5346493
  32.1948553   7.7771673  49.6726493  32.3238553   7.4971673  50.4886493
  31.5848553   7.2361673  49.3636493  32.1238553   7.6561673  49.7476493
  38.7688553   5.3021673  54.7396493  38.5328553   5.2991673  55.5796493
  38.0208553   5.1541673  54.3156493  38.6228553   5.2791673  54.8006493
  33.6408553   2.2981673  43.8746493  33.1788553   1.9061673  43.2476493
  34.3408553   1.7851673  43.9666493  33.6758553   2.1651673  43.7956493
  38.7508553   8.4941673  52.0026493  38.8888553   9.2541673  51.5956493
  39.5418553   8.1291673  52.0296493  38.8878553   8.5531673  51.9466493
  39.8458553   6.3791673  46.5076493  40.1938553   5.5801673  46.5376493
  40.5108553   6.8831673  46.2526493  39.9958553   6.3351673  46.4746493
  39.9028553   5.8281673  42.7186493  40.2338553   5.1841673  43.2046493
  40.1428553   5.6171673  41.9076493  39.9868553   5.7021673  42.6706493
  32.0068553   9.7691673  44.7876493  31.4148553  10.3271673  44.4746493
  32.4328553   9.5001673  44.0756493  31.9828553   9.8111673  44.6366493
  37.8468553   7.6131673  42.2676493  37.2678553   7.3381673  42.8596493
  38.4708553   7.0041673  42.2926493  37.8538553   7.4831673  42.3586493
  43.9898553   9.9011673  39.7896493  44.7168553  10.3731673  39.8916493
  44.2188553   9.1071673  40.0696493  44.1318553   9.8541673  39.8466493
  42.1578553  10.2931673  41.7796493  42.3718553  10.8201673  42.4416493
  42.9248553  10.1191673  41.4006493  42.3028553  10.3451673  41.8216493
  33.5518553   8.4391673  42.7186493  34.2078553   7.8641673  42.7336493
  33.9408553   9.1881673  42.4976493  33.7068553   8.4641673  42.6886493
  44.5968553  10.3031673  50.0846493  45.3408553  10.7591673  50.0746493
  44.4758553  10.0891673  49.2476493  44.6888553  10.3391673  49.9596493
  34.3698553   6.9261673  46.2186493  34.7928553   6.5701673  45.5446493
  34.6938553   6.5041673  46.9106493  34.4798553   6.8111673  46.2216493
  37.6008553   9.7781673  45.5146493  38.4448553   9.8821673  45.3196493
  37.3038553  10.5961673  45.5826493  37.6818553   9.9141673  45.4956493
  46.1708553  11.4881673  40.1896493  46.8358553  11.3401673  39.6446493
  46.5308553  11.4051673  40.9796493  46.3228553  11.4541673  40.2256493
  36.5988553  10.9971673  51.2546493  36.8908553  10.9301673  52.0746493
  35.9728553  10.3921673  51.2096493  36.5498553  10.8981673  51.3696493
  43.8508553   7.4881673  53.7886493  43.8168553   7.8701673  54.5726493
  44.7048553   7.4461673  53.6176493  43.9718553   7.5381673  53.8796493
  40.9888553   7.6851673  38.5386493  40.8078553   8.2301673  39.1956493
  41.7548553   7.9751673  38.2376493  41.0748553   7.8091673  38.5916493
  34.5918553   9.1591673  50.3766493  33.8938553   8.6511673  50.5026493
  34.8518553   8.9541673  49.5686493  34.5268553   9.0541673  50.2756493
  42.3028553  10.6521673  51.2866493  43.0708553  10.5721673  50.8806493
  41.7198553  10.5311673  50.6486493  42.3298553  10.6221673  51.1326493
  48.5798553  11.2551673  44.1876493  48.1248553  11.9721673  44.3886493
  47.9658553  10.6841673  43.9456493  48.4218553  11.2771673  44.1816493
  45.5768553   7.1001673  43.7316493  46.2778553   6.6181673  43.9206493
  44.9168553   6.5311673  43.7766493  45.5828553   6.9451673  43.7656493
  35.9528553   8.0101673  52.9436493  36.7938553   8.0731673  52.7216493
  35.9158553   8.4071673  53.7196493  36.0718553   8.0781673  53.0256493
  37.9158553   3.5211673  47.6926493  38.0878553   3.3111673  48.5216493
  37.2608553   2.9871673  47.4766493  37.8448553   3.4111673  47.7836493
  38.6658553   3.4591673  50.2826493  38.7188553   4.3061673  50.4846493
  38.3808553   3.0891673  51.0196493  38.6318553   3.5291673  50.4206493
  44.8428553   4.1541673  49.4126493  44.3288553   3.7421673  49.9836493
  44.7168553   4.9981673  49.5936493  44.7488553   4.2181673  49.5236493
  31.4868553   7.8301673  56.4936493  32.2428553   8.1791673  56.7516493
  31.6638553   6.9771673  56.4366493  31.6248553   7.7551673  56.5236493
  48.0958553   4.5931673  39.5396493  48.2148553   4.3061673  40.3546493
  48.9028553   4.6141673  39.2096493  48.2318553   4.5541673  39.6116493
  35.2318553   4.3251673  44.8706493  36.0828553   4.2451673  44.6976493
  34.8748553   3.6431673  44.4586493  35.3048553   4.2121673  44.7836493
  33.9988553  11.0501673  46.1076493  33.3258553  10.5521673  45.8626493
  34.4018553  11.2351673  45.3566493  33.9588553  11.0041673  45.9606493
  50.3298553   9.1021673  53.7936493  49.6478553   9.4121673  53.3466493
  49.9608553   8.6441673  54.4386493  50.1738553   9.0801673  53.8226493
  37.5998553   4.3321673  43.1056493  38.3128553   4.8271673  43.1956493
  37.8218553   3.7651673  42.4796493  37.7378553   4.3211673  43.0266493
  31.7558553   5.9751673  46.4256493  31.0888553   6.4631673  46.7016493
  32.4358553   6.5201673  46.4546493  31.7578553   6.1271673  46.4706493
  31.8218553   2.6591673  41.5286493  31.6368553   1.8201673  41.6806493
  32.4808553   2.6231673  40.9586493  31.8918553   2.5301673  41.4666493
  42.1228553   8.0351673  45.4326493  41.5998553   8.6691673  45.1396493
  42.4328553   7.6711673  44.7036493  42.0908553   8.0751673  45.2816493
  31.9938553   6.8231673  41.1036493  32.5458553   7.3921673  41.4676493
  31.7618553   6.3081673  41.7686493  32.0408553   6.8311673  41.2556493
  36.1978553   5.8231673  48.1926493  36.6648553   6.1121673  48.8706493
  36.7698553   5.3451673  47.7386493  36.3518553   5.7951673  48.2256493
  31.8238553   5.2721673  38.7316493  32.5798553   4.8401673  38.7896493
  31.8388553   5.8041673  39.4226493  31.9378553   5.2871673  38.8426493
  32.7638553   3.4931673  46.7366493  33.1948553   3.3641673  45.9896493
  32.5588553   4.3411673  46.7106493  32.7968553   3.5991673  46.6226493
  48.1638553   9.4841673  51.8836493  47.4928553   9.9981673  52.1016493
  48.2268553   9.5841673  51.0196493  48.0738553   9.5751673  51.7886493
  36.8478553   7.0091673  45.0186493  36.9738553   7.8521673  45.2056493
  37.5158553   6.6101673  45.4146493  36.9658553   7.0751673  45.1046493
  40.1598553  10.2331673  49.4796493  39.8828553   9.5921673  48.9566493
  39.9518553  10.9591673  49.0416493  40.0888553  10.2461673  49.3376493
  33.8588553   2.8111673  55.6466493  33.8218553   3.3121673  54.9326493
  34.1898553   2.0591673  55.3516493  33.9018553   2.7731673  55.4976493
  45.4618553   5.0161673  53.9046493  45.9458553   5.7341673  54.0026493
  45.8558553   4.5891673  53.2536493  45.5918553   5.0591673  53.8226493
  39.7578553   7.8611673  55.0816493  40.1118553   7.6831673  55.8586493
  39.3218553   7.1321673  54.8826493  39.7458553   7.7271673  55.1676493
  42.9188553   1.7771673  39.9936493  42.9108553   2.4991673  39.5036493
  42.2798553   1.9121673  40.5706493  42.8238553   1.9041673  40.0066493
  47.8908553   5.6471673  43.9746493  48.2468553   5.2971673  44.6896493
  47.8828553   4.9861673  43.4046493  47.9428553   5.4971673  43.9956493
  43.9358553   8.7131673  47.8186493  43.3328553   8.4171673  47.2616493
  44.4808553   9.1651673  47.3096493  43.9268553   8.7361673  47.6606493
  43.9488553   5.5641673  47.2186493  43.1518553   5.7881673  47.4926493
  44.2068553   4.9701673  47.8036493  43.8688553   5.5091673  47.3456493
  37.8408553  10.3761673  41.6666493  37.6938553   9.6001673  42.0376493
  38.5298553  10.2291673  41.1516493  37.9208553  10.2391673  41.6456493
  40.1328553   9.8921673  40.0686493  40.7548553  10.0551673  40.6586493
  40.1688553  10.5831673  39.5366493  40.2298553  10.0181673  40.0776493
  47.2088553   3.5621673  52.0646493  47.2638553   3.6871673  51.2026493
  47.9618553   3.8821673  52.3666493  47.3278553   3.6271673  51.9816493
  43.3998553   8.9111673  56.3416493  43.5638553   9.1941673  57.1506493
  43.6628553   9.5721673  55.8366493  43.4628553   9.0511673  56.3866493
  42.9398553   3.3681673  51.6646493  42.7848553   3.9781673  52.2686493
  43.4738553   2.8101673  52.0706493  42.9958553   3.3761673  51.8136493
  46.5498553   6.0971673  48.1916493  46.0708553   6.3951673  47.5256493
  46.1938553   5.3211673  48.3696493  46.4268553   6.0261673  48.1196493
  40.5468553   3.8151673  46.7536493  39.6998553   3.6211673  46.8346493
  40.8708553   3.6501673  47.5466493  40.4688553   3.7621673  46.8826493
  37.2988553  10.5451673  37.6396493  37.7378553   9.8481673  37.9276493
  37.5058553  11.1691673  38.2126493  37.3948553  10.5341673  37.7666493
  34.3948553   3.5081673  49.0696493  35.1168553   3.9961673  49.0326493
  34.1248553   3.4781673  48.2406493  34.4618553   3.5761673  48.9416493
  50.2418553  10.2631673  40.1316493  50.9358553   9.7961673  39.8836493
  49.7028553   9.6651673  40.4686493  50.2648553  10.1051673  40.1446493
  47.4808553   3.0391673  49.3106493  47.4738553   2.2631673  49.7086493
  46.6398553   3.2731673  49.3036493  47.3558553   2.9591673  49.3686493
  33.7898553   4.5601673  53.3476493  33.3688553   4.0421673  52.7866493
  33.4378553   5.3461673  53.2046493  33.6758553   4.6001673  53.2436493
  48.7368553   3.1101673  46.7476493  48.4508553   3.5111673  47.4676493
  49.5968553   3.0481673  46.8746493  48.8218553   3.1601673  46.8726493
  49.8678553   8.7431673  47.2766493  50.1578553   9.0001673  46.4956493
  50.5628553   8.8391673  47.7956493  50.0138553   8.7951673  47.2376493
  46.4728553   7.3461673  39.2586493  46.8068553   6.5401673  39.2936493
  45.7178553   7.2741673  39.6886493  46.4108553   7.2161673  39.3276493
  49.3948553   5.1401673  52.6696493  50.0228553   4.5911673  52.4136493
  49.3338553   5.7051673  52.0076493  49.4788553   5.1431673  52.5336493
  43.8468553   5.2211673  38.6616493  44.5308553   4.7071673  38.4926493
  43.4298553   5.2671673  37.8966493  43.8858553   5.1521673  38.5236493
  38.5288553   6.3711673  49.9656493  38.2308553   6.9631673  50.5326493
  38.5838553   6.8131673  49.2166493  38.4928553   6.5241673  49.9386493
  36.5078553   5.3211673  53.3636493  35.7018553   5.0311673  53.5306493
  36.4188553   6.1891673  53.3696493  36.3758553   5.4061673  53.3886493
  41.0448553   2.7941673  49.4566493  41.5208553   3.1681673  50.0846493
  40.2218553   2.9281673  49.7156493  40.9938553   2.8691673  49.5876493
  40.3088553  10.1871673  44.6846493  40.8548553  10.8661673  44.7386493
  39.9588553  10.2691673  43.8896493  40.3378553  10.3001673  44.5746493
  38.4918553   8.4151673  48.0736493  37.8678553   8.9971673  47.8916493
  38.7398553   8.1291673  47.2876493  38.4358553   8.4591673  47.9306493
  42.8008553   5.0491673  55.0626493  43.5578553   5.3351673  54.7366493
  42.2538553   5.1011673  54.3846493  42.8318553   5.0991673  54.9136493
  46.7098553   7.5991673  53.5666493  47.0558553   7.8691673  54.3206493
  47.0038553   8.1811673  52.9866493  46.8048553   7.7251673  53.5926493
  40.0858553   3.1911673  37.9886493  39.2808553   3.0141673  37.7036493
  40.0528553   4.0421673  38.1806493  39.9618553   3.2901673  37.9756493
  41.1448553  10.0641673  53.9536493  41.6228553   9.4641673  53.5376493
  40.7938553   9.6211673  54.6186493  41.1638553   9.9101673  53.9906493
  47.7328553   3.3711673  42.1346493  48.2088553   2.6421673  42.0866493
  46.9118553   3.0851673  42.0586493  47.6818553   3.2211673  42.1156493
  41.2038553   5.2831673  52.9736493  40.4088553   5.2191673  53.3246493
  41.2748553   6.1301673  52.7786493  41.0968553   5.3981673  52.9966493
  37.0338553  11.4901673  48.2906493  37.0448553  11.5491673  49.1606493
  36.6088553  10.7431673  48.1406493  36.9728553  11.3881673  48.3966493
  43.9488553   4.5381673  44.4896493  44.0248553   4.8791673  45.2886493
  44.1178553   3.6911673  44.6106493  43.9848553   4.4631673  44.6256493
  41.4708553   3.8121673  44.0546493  41.1728553   3.4971673  44.8116493
  42.1658553   4.2851673  44.2896493  41.5298553   3.8351673  44.2016493
  41.6928553   7.9301673  52.0816493  42.3798553   7.8161673  52.6066493
  41.8268553   8.7211673  51.7376493  41.8138553   8.0301673  52.1086493
  33.7978553  10.9881673  53.7326493  33.1438553  10.4191673  53.8306493
  33.4228553  11.7611673  53.8836493  33.6458553  11.0181673  53.7696493
  42.3158553   2.3941673  55.6556493  42.6388553   3.0801673  55.2236493
  41.6118553   2.7171673  56.0576493  42.2588553   2.5431673  55.6506493
  45.3998553  10.7681673  46.5846493  44.9488553  11.4111673  46.9636493
  46.1078553  10.6891673  47.0896493  45.4378553  10.8511673  46.7156493
  42.1008553   5.8581673  49.5146493  41.4068553   6.2601673  49.8576493
  42.7778553   6.2911673  49.8536493  42.0978553   5.9811673  49.6156493
  47.4778553   8.4511673  56.0946493  48.2538553   8.0611673  56.1776493
  47.0088553   8.1151673  56.7496493  47.5228553   8.3441673  56.2036493
  42.4228553   7.4491673  42.6836493  42.2178553   8.2821673  42.5246493
  41.6478553   7.0671673  42.8056493  42.2778553   7.5161673  42.6786493
  32.3408553   3.0701673  51.3606493  32.6608553   3.2891673  50.5796493
  32.2408553   2.2051673  51.3056493  32.3728553   2.9751673  51.2376493
  37.7848553   7.7111673  39.0926493  38.2258553   7.7911673  39.8406493
  36.9798553   7.4951673  39.3506493  37.7308553   7.6911673  39.2416493
  37.1038553   2.3621673  52.7456493  36.7078553   3.1361673  52.8206493
  36.6978553   1.9891673  52.0696493  36.9858553   2.4211673  52.6566493
  46.6928553   9.4821673  42.6666493  46.5188553   8.8281673  43.2166493
  47.4058553   9.2111673  42.2436493  46.7728553   9.3451673  42.6856493
  35.1138553   6.7811673  39.6936493  34.8698553   6.4741673  40.4736493
  35.0808553   6.0781673  39.1776493  35.0728553   6.6321673  39.7326493
  37.9328553   5.0261673  38.4366493  37.1148553   4.7581673  38.5766493
  37.9048553   5.8781673  38.6216493  37.8078553   5.1131673  38.4846493
  44.3678553   6.9351673  50.3576493  44.5738553   7.2361673  51.1496493
  44.3068553   7.6571673  49.8726493  44.3888553   7.0861673  50.4026493
  43.9018553  11.1491673  54.6036493  43.1488553  11.1311673  54.1626493
  44.0698553  12.0011673  54.6876493  43.8158553  11.2721673  54.5506493
  49.1798553   5.5741673  49.8156493  49.1478553   4.7121673  49.6806493
  48.4868553   5.8761673  49.3816493  49.0728553   5.4911673  49.7316493
  37.5738553  10.7721673  54.0216493  37.6148553  10.8981673  54.8846493
  38.2248553  10.2121673  53.8656493  37.6758553  10.7081673  54.1266493
  47.2848553   8.8341673  48.6126493  47.8118553   8.7511673  47.9216493
  46.8938553   8.0561673  48.6666493  47.3048553   8.7071673  48.5186493
  35.1668553   9.1551673  55.3816493  35.7618553   9.5861673  55.8536493
  34.8028553   9.7791673  54.8926493  35.2008553   9.3111673  55.3786493
  33.0938553   7.1441673  52.3106493  32.5198553   7.5601673  52.8196493
  33.8268553   7.6091673  52.4056493  33.1178553   7.2741673  52.3996493
  34.8798553  10.4111673  41.0856493  34.7348553  10.5671673  40.2396493
  35.7458553  10.4901673  41.1636493  34.9868553  10.4461673  40.9726493
  39.0468553   2.8081673  40.8136493  39.1468553   2.9471673  39.9586493
  39.8648553   2.7481673  41.1096493  39.1818553   2.8191673  40.7306493
  48.2068553  10.8721673  38.2936493  48.8438553  10.7381673  38.8746493
  47.8658553  10.0781673  38.1766493  48.2508553  10.7351673  38.3616493
  48.4018553   3.2901673  55.0266493  49.0358553   3.1201673  55.6006493
  48.8188553   3.6931673  54.3746493  48.5568553   3.3251673  55.0156493
  44.2818553   7.1371673  40.6156493  44.0308553   7.0091673  41.4416493
  43.9648553   6.4421673  40.1946493  44.1978553   7.0161673  40.6756493
  45.8128553   3.4011673  56.3816493  46.6838553   3.3651673  56.3456493
  45.5938553   3.8211673  55.6496493  45.9098553   3.4571673  56.2686493
  35.5668553   9.2261673  47.5626493  35.4878553   8.4161673  47.2466493
  35.1228553   9.7131673  46.9906493  35.4898553   9.1781673  47.4316493
  41.1678553   5.3451673  40.0456493  41.8848553   4.9981673  39.6896493
  41.1338553   6.1451673  39.6976493  41.2688553   5.4121673  39.9416493
  33.1388553  11.4701673  51.1436493  33.6318553  11.4141673  51.8616493
  33.3268553  10.7371673  50.7086493  33.2398553  11.3531673  51.1856493
  32.2548553   5.0421673  24.4114083  31.8138553   5.1601673  25.1544083
  31.9718553   4.2671673  24.1264083  32.1478553   4.9451673  24.4794083
  48.5298553   8.3431673  21.9264083  49.2308553   7.8241673  21.9224083
  47.9428553   7.8981673  21.4574083  48.5468553   8.2001673  21.8564083
  35.1368553   4.0971673  19.5904083  34.7448553   3.7261673  18.9044083
  35.0568553   3.4991673  20.2194083  35.0668553   3.9541673  19.5814083
  34.7638553   5.7381673  23.4904083  35.3718553   5.5681673  24.0934083
  34.0128553   5.5981673  23.9114083  34.7428553   5.6921673  23.6414083
  33.6548553   8.8291673  19.5674083  34.1218553   8.9131673  18.8354083
  34.1098553   8.2511673  20.0364083  33.7908553   8.7561673  19.5284083
  32.1948553   7.7771673  30.6664083  32.3238553   7.4971673  31.4824083
  31.5848553   7.2361673  30.3574083  32.1238553   7.6561673  30.7414083
  38.7688553   5.3021673  35.7334083  38.5328553   5.2991673  36.5734083
  38.0208553   5.1541673  35.3094083  38.6228553   5.2791673  35.7944083
  33.6408553   2.2981673  24.8684083  33.1788553   1.9061673  24.2414083
  34.3408553   1.7851673  24.9604083  33.6758553   2.1651673  24.7894083
  38.7508553   8.4941673  32.9964083  38.8888553   9.2541673  32.5894083
  39.5418553   8.1291673  33.0234083  38.8878553   8.5531673  32.9404083
  39.8458553   6.3791673  27.5014083  40.1938553   5.5801673  27.5314083
  40.5108553   6.8831673  27.2464083  39.9958553   6.3351673  27.4684083
  39.9028553   5.8281673  23.7124083  40.2338553   5.1841673  24.1984083
  40.1428553   5.6171673  22.9014083  39.9868553   5.7021673  23.6644083
  32.0068553   9.7691673  25.7814083  31.4148553  10.3271673  25.4684083
  32.4328553   9.5001673  25.0694083  31.9828553   9.8111673  25.6304083
  37.8468553   7.6131673  23.2614083  37.2678553   7.3381673  23.8534083
  38.4708553   7.0041673  23.2864083  37.8538553   7.4831673  23.3524083
  43.9898553   9.9011673  20.7834083  44.7168553  10.3731673  20.8854083
  44.2188553   9.1071673  21.0634083  44.1318553   9.8541673  20.8404083
  42.1578553  10.2931673  22.7734083  42.3718553  10.8201673  23.4354083
  42.9248553  10.1191673  22.3944083  42.3028553  10.3451673  22.8154083
  33.5518553   8.4391673  23.7124083  34.2078553   7.8641673  23.7274083
  33.9408553   9.1881673  23.4914083  33.7068553   8.4641673  23.6824083
  44.5968553  10.3031673  31.0784083  45.3408553  10.7591673  31.0684083
  44.4758553  10.0891673  30.2414083  44.6888553  10.3391673  30.9534083
  34.3698553   6.9261673  27.2124083  34.7928553   6.5701673  26.5384083
  34.6938553   6.5041673  27.9044083  34.4798553   6.8111673  27.2154083
  37.6008553   9.7781673  26.5084083  38.4448553   9.8821673  26.3134083
  37.3038553  10.5961673  26.5764083  37.6818553   9.9141673  26.4894083
  46.1708553  11.4881673  21.1834083  46.8358553  11.3401673  20.6384083
  46.5308553  11.4051673  21.9734083  46.3228553  11.4541673  21.2194083
  36.5988553  10.9971673  32.2484083  36.8908553  10.9301673  33.0684083
  35.9728553  10.3921673  32.2034083  36.5498553  10.8981673  32.3634083
  43.8508553   7.4881673  34.7824083  43.8168553   7.8701673  35.5664083
  44.7048553   7.4461673  34.6114083  43.9718553   7.5381673  34.8734083
  40.9888553   7.6851673  19.5324083  40.8078553   8.2301673  20.1894083
  41.7548553   7.9751673  19.2314083  41.0748553   7.8091673  19.5854083
  34.5918553   9.1591673  31.3704083  33.8938553   8.6511673  31.4964083
  34.8518553   8.9541673  30.5624083  34.5268553   9.0541673  31.2694083
  42.3028553  10.6521673  32.2804083  43.0708553  10.5721673  31.8744083
  41.7198553  10.5311673  31.6424083  42.3298553  10.6221673  32.1264083
  48.5798553  11.2551673  25.1814083  48.1248553  11.9721673  25.3824083
  47.9658553  10.6841673  24.9394083  48.4218553  11.2771673  25.1754083
  45.5768553   7.1001673  24.7254083  46.2778553   6.6181673  24.9144083
  44.9168553   6.5311673  24.7704083  45.5828553   6.9451673  24.7594083
  35.9528553   8.0101673  33.9374083  36.7938553   8.0731673  33.7154083
  35.9158553   8.4071673  34.7134083  36.0718553   8.0781673  34.0194083
  37.9158553   3.5211673  28.6864083  38.0878553   3.3111673  29.5154083
  37.2608553   2.9871673  28.4704083  37.8448553   3.4111673  28.7774083
  38.6658553   3.4591673  31.2764083  38.7188553   4.3061673  31.4784083
  38.3808553   3.0891673  32.0134083  38.6318553   3.5291673  31.4144083
  44.8428553   4.1541673  30.4064083  44.3288553   3.7421673  30.9774083
  44.7168553   4.9981673  30.5874083  44.7488553   4.2181673  30.5174083
  31.4868553   7.8301673  37.4874083  32.2428553   8.1791673  37.7454083
  31.6638553   6.9771673  37.4304083  31.6248553   7.7551673  37.5174083
  48.0958553   4.5931673  20.5334083  48.2148553   4.3061673  21.3484083
  48.9028553   4.6141673  20.2034083  48.2318553   4.5541673  20.6054083
  35.2318553   4.3251673  25.8644083  36.0828553   4.2451673  25.6914083
  34.8748553   3.6431673  25.4524083  35.3048553   4.2121673  25.7774083
  33.9988553  11.0501673  27.1014083  33.3258553  10.5521673  26.8564083
  34.4018553  11.2351673  26.3504083  33.9588553  11.0041673  26.9544083
  50.3298553   9.1021673  34.7874083  49.6478553   9.4121673  34.3404083
  49.9608553   8.6441673  35.4324083  50.1738553   9.0801673  34.8164083
  37.5998553   4.3321673  24.0994083  38.3128553   4.8271673  24.1894083
  37.8218553   3.7651673  23.4734083  37.7378553   4.3211673  24.0204083
  31.7558553   5.9751673  27.4194083  31.0888553   6.4631673  27.6954083
  32.4358553   6.5201673  27.4484083  31.7578553   6.1271673  27.4644083
  31.8218553   2.6591673  22.5224083  31.6368553   1.8201673  22.6744083
  32.4808553   2.6231673  21.9524083  31.8918553   2.5301673  22.4604083
  42.1228553   8.0351673  26.4264083  41.5998553   8.6691673  26.1334083
  42.4328553   7.6711673  25.6974083  42.0908553   8.0751673  26.2754083
  31.9938553   6.8231673  22.0974083  32.5458553   7.3921673  22.4614083
  31.7618553   6.3081673  22.7624083  32.0408553   6.8311673  22.2494083
  36.1978553   5.8231673  29.1864083  36.6648553   6.1121673  29.8644083
  36.7698553   5.3451673  28.7324083  36.3518553   5.7951673  29.2194083
  31.8238553   5.2721673  19.7254083  32.5798553   4.8401673  19.7834083
  31.8388553   5.8041673  20.4164083  31.9378553   5.2871673  19.8364083
  32.7638553   3.4931673  27.7304083  33.1948553   3.3641673  26.9834083
  32.5588553   4.3411673  27.7044083  32.7968553   3.5991673  27.6164083
  48.1638553   9.4841673  32.8774083  47.4928553   9.9981673  33.0954083
  48.2268553   9.5841673  32.0134083  48.0738553   9.5751673  32.7824083
  36.8478553   7.0091673  26.0124083  36.9738553   7.8521673  26.1994083
  37.5158553   6.6101673  26.4084083  36.9658553   7.0751673  26.0984083
  40.1598553  10.2331673  30.4734083  39.8828553   9.5921673  29.9504083
  39.9518553  10.9591673  30.0354083  40.0888553  10.2461673  30.3314083
  33.8588553   2.8111673  36.6404083  33.8218553   3.3121673  35.9264083
  34.1898553   2.0591673  36.3454083  33.9018553   2.7731673  36.4914083
  45.4618553   5.0161673  34.8984083  45.9458553   5.7341673  34.9964083
  45.8558553   4.5891673  34.2474083  45.5918553   5.0591673  34.8164083
  39.7578553   7.8611673  36.0754083  40.1118553   7.6831673  36.8524083
  39.3218553   7.1321673  35.8764083  39.7458553   7.7271673  36.1614083
  42.9188553   1.7771673  20.9874083  42.9108553   2.4991673  20.4974083
  42.2798553   1.9121673  21.5644083  42.8238553   1.9041673  21.0004083
  47.8908553   5.6471673  24.9684083  48.2468553   5.2971673  25.6834083
  47.8828553   4.9861673  24.3984083  47.9428553   5.4971673  24.9894083
  43.9358553   8.7131673  28.8124083  43.3328553   8.4171673  28.2554083
  44.4808553   9.1651673  28.3034083  43.9268553   8.7361673  28.6544083
  43.9488553   5.5641673  28.2124083  43.1518553   5.7881673  28.4864083
  44.2068553   4.9701673  28.7974083  43.8688553   5.5091673  28.3394083
  37.8408553  10.3761673  22.6604083  37.6938553   9.6001673  23.0314083
  38.5298553  10.2291673  22.1454083  37.9208553  10.2391673  22.6394083
  40.1328553   9.8921673  21.0624083  40.7548553  10.0551673  21.6524083
  40.1688553  10.5831673  20.5304083  40.2298553  10.0181673  21.0714083
  47.2088553   3.5621673  33.0584083  47.2638553   3.6871673  32.1964083
  47.9618553   3.8821673  33.3604083  47.3278553   3.6271673  32.9754083
  43.3998553   8.9111673  37.3354083  43.5638553   9.1941673  38.1444083
  43.6628553   9.5721673  36.8304083  43.4628553   9.0511673  37.3804083
  42.9398553   3.3681673  32.6584083  42.7848553   3.9781673  33.2624083
  43.4738553   2.8101673  33.0644083  42.9958553   3.3761673  32.8074083
  46.5498553   6.0971673  29.1854083  46.0708553   6.3951673  28.5194083
  46.1938553   5.3211673  29.3634083  46.4268553   6.0261673  29.1134083
  40.5468553   3.8151673  27.7474083  39.6998553   3.6211673  27.8284083
  40.8708553   3.6501673  28.5404083  40.4688553   3.7621673  27.8764083
  37.2988553  10.5451673  18.6334083  37.7378553   9.8481673  18.9214083
  37.5058553  11.1691673  19.2064083  37.3948553  10.5341673  18.7604083
  34.3948553   3.5081673  30.0634083  35.1168553   3.9961673  30.0264083
  34.1248553   3.4781673  29.2344083  34.4618553   3.5761673  29.9354083
  50.2418553  10.2631673  21.1254083  50.9358553   9.7961673  20.8774083
  49.7028553   9.6651673  21.4624083  50.2648553  10.1051673  21.1384083
  47.4808553   3.0391673  30.3044083  47.4738553   2.2631673  30.7024083
  46.6398553   3.2731673  30.2974083  47.3558553   2.9591673  30.3624083
  33.7898553   4.5601673  34.3414083  33.3688553   4.0421673  33.7804083
  33.4378553   5.3461673  34.1984083  33.6758553   4.6001673  34.2374083
  48.7368553   3.1101673  27.7414083  48.4508553   3.5111673  28.4614083
  49.5968553   3.0481673  27.8684083  48.8218553   3.1601673  27.8664083
  49.8678553   8.7431673  28.2704083  50.1578553   9.0001673  27.4894083
  50.5628553   8.8391673  28.7894083  50.0138553   8.7951673  28.2314083
  46.4728553   7.3461673  20.2524083  46.8068553   6.5401673  20.2874083
  45.7178553   7.2741673  20.6824083  46.4108553   7.2161673  20.3214083
  49.3948553   5.1401673  33.6634083  50.0228553   4.5911673  33.4074083
  49.3338553   5.7051673  33.0014083  49.4788553   5.1431673  33.5274083
  43.8468553   5.2211673  19.6554083  44.5308553   4.7071673  19.4864083
  43.4298553   5.2671673  18.8904083  43.8858553   5.1521673  19.5174083
  38.5288553   6.3711673  30.9594083  38.2308553   6.9631673  31.5264083
  38.5838553   6.8131673  30.2104083  38.4928553   6.5241673  30.9324083
  36.5078553   5.3211673  34.3574083  35.7018553   5.0311673  34.5244083
  36.4188553   6.1891673  34.3634083  36.3758553   5.4061673  34.3824083
  41.0448553   2.7941673  30.4504083  41.5208553   3.1681673  31.0784083
  40.2218553   2.9281673  30.7094083  40.9938553   2.8691673  30.5814083
  40.3088553  10.1871673  25.6784083  40.8548553  10.8661673  25.7324083
  39.9588553  10.2691673  24.8834083  40.3378553  10.3001673  25.5684083
  38.4918553   8.4151673  29.0674083  37.8678553   8.9971673  28.8854083
  38.7398553   8.1291673  28.2814083  38.4358553   8.4591673  28.9244083
  42.8008553   5.0491673  36.0564083  43.5578553   5.3351673  35.7304083
  42.2538553   5.1011673  35.3784083  42.8318553   5.0991673  35.9074083
  46.7098553   7.5991673  34.5604083  47.0558553   7.8691673  35.3144083
  47.0038553   8.1811673  33.9804083  46.8048553   7.7251673  34.5864083
  40.0858553   3.1911673  18.9824083  39.2808553   3.0141673  18.6974083
  40.0528553   4.0421673  19.1744083  39.9618553   3.2901673  18.9694083
  41.1448553  10.0641673  34.9474083  41.6228553   9.4641673  34.5314083
  40.7938553   9.6211673  35.6124083  41.1638553   9.9101673  34.9844083
  47.7328553   3.3711673  23.1284083  48.2088553   2.6421673  23.0804083
  46.9118553   3.0851673  23.0524083  47.6818553   3.2211673  23.1094083
  41.2038553   5.2831673  33.9674083  40.4088553   5.2191673  34.3184083
  41.2748553   6.1301673  33.7724083  41.0968553   5.3981673  33.9904083
  37.0338553  11.4901673  29.2844083  37.0448553  11.5491673  30.1544083
  36.6088553  10.7431673  29.1344083  36.9728553  11.3881673  29.3904083
  43.9488553   4.5381673  25.4834083  44.0248553   4.8791673  26.2824083
  44.1178553   3.6911673  25.6044083  43.9848553   4.4631673  25.6194083
  41.4708553   3.8121673  25.0484083  41.1728553   3.4971673  25.8054083
  42.1658553   4.2851673  25.2834083  41.5298553   3.8351673  25.1954083
  41.6928553   7.9301673  33.0754083  42.3798553   7.8161673  33.6004083
  41.8268553   8.7211673  32.7314083  41.8138553   8.0301673  33.1024083
  33.7978553  10.9881673  34.7264083  33.1438553  10.4191673  34.8244083
  33.4228553  11.7611673  34.8774083  33.6458553  11.0181673  34.7634083
  42.3158553   2.3941673  36.6494083  42.6388553   3.0801673  36.2174083
  41.6118553   2.7171673  37.0514083  42.2588553   2.5431673  36.6444083
  45.3998553  10.7681673  27.5784083  44.9488553  11.4111673  27.9574083
  46.1078553  10.6891673  28.0834083  45.4378553  10.8511673  27.7094083
  42.1008553   5.8581673  30.5084083  41.4068553   6.2601673  30.8514083
  42.7778553   6.2911673  30.8474083  42.0978553   5.9811673  30.6094083
  47.4778553   8.4511673  37.0884083  48.2538553   8.0611673  37.1714083
  47.0088553   8.1151673  37.7434083  47.5228553   8.3441673  37.1974083
  42.4228553   7.4491673  23.6774083  42.2178553   8.2821673  23.5184083
  41.6478553   7.0671673  23.7994083  42.2778553   7.5161673  23.6724083
  32.3408553   3.0701673  32.3544083  32.6608553   3.2891673  31.5734083
  32.2408553   2.2051673  32.2994083  32.3728553   2.9751673  32.2314083
  37.7848553   7.7111673  20.0864083  38.2258553   7.7911673  20.8344083
  36.9798553   7.4951673  20.3444083  37.7308553   7.6911673  20.2354083
  37.1038553   2.3621673  33.7394083  36.7078553   3.1361673  33.8144083
  36.6978553   1.9891673  33.0634083  36.9858553   2.4211673  33.6504083
  46.6928553   9.4821673  23.6604083  46.5188553   8.8281673  24.2104083
  47.4058553   9.2111673  23.2374083  46.7728553   9.3451673  23.6794083
  35.1138553   6.7811673  20.6874083  34.8698553   6.4741673  21.4674083
  35.0808553   6.0781673  20.1714083  35.0728553   6.6321673  20.7264083
  37.9328553   5.0261673  19.4304083  37.1148553   4.7581673  19.5704083
  37.9048553   5.8781673  19.6154083  37.8078553   5.1131673  19.4784083
  44.3678553   6.9351673  31.3514083  44.5738553   7.2361673  32.1434083
  44.3068553   7.6571673  30.8664083  44.3888553   7.0861673  31.3964083
  43.9018553  11.1491673  35.5974083  43.1488553  11.1311673  35.1564083
  44.0698553  12.0011673  35.6814083  43.8158553  11.2721673  35.5444083
  49.1798553   5.5741673  30.8094083  49.1478553   4.7121673  30.6744083
  48.4868553   5.8761673  30.3754083  49.0728553   5.4911673  30.7254083
  37.5738553  10.7721673  35.0154083  37.6148553  10.8981673  35.8784083
  38.2248553  10.2121673  34.8594083  37.6758553  10.7081673  35.1204083
  47.2848553   8.8341673  29.6064083  47.8118553   8.7511673  28.9154083
  46.8938553   8.0561673  29.6604083  47.3048553   8.7071673  29.5124083
  35.1668553   9.1551673  36.3754083  35.7618553   9.5861673  36.8474083
  34.8028553   9.7791673  35.8864083  35.2008553   9.3111673  36.3724083
  33.0938553   7.1441673  33.3044083  32.5198553   7.5601673  33.8134083
  33.8268553   7.6091673  33.3994083  33.1178553   7.2741673  33.3934083
  34.8798553  10.4111673  22.0794083  34.7348553  10.5671673  21.2334083
  35.7458553  10.4901673  22.1574083  34.9868553  10.4461673  21.9664083
  39.0468553   2.8081673  21.8074083  39.1468553   2.9471673  20.9524083
  39.8648553   2.7481673  22.1034083  39.1818553   2.8191673  21.7244083
  48.2068553  10.8721673  19.2874083  48.8438553  10.7381673  19.8684083
  47.8658553  10.0781673  19.1704083  48.2508553  10.7351673  19.3554083
  48.4018553   3.2901673  36.0204083  49.0358553   3.1201673  36.5944083
  48.8188553   3.6931673  35.3684083  48.5568553   3.3251673  36.0094083
  44.2818553   7.1371673  21.6094083  44.0308553   7.0091673  22.4354083
  43.9648553   6.4421673  21.1884083  44.1978553   7.0161673  21.6694083
  45.8128553   3.4011673  37.3754083  46.6838553   3.3651673  37.3394083
  45.5938553   3.8211673  36.6434083  45.9098553   3.4571673  37.2624083
  35.5668553   9.2261673  28.5564083  35.4878553   8.4161673  28.2404083
  35.1228553   9.7131673  27.9844083  35.4898553   9.1781673  28.4254083
  41.1678553   5.3451673  21.0394083  41.8848553   4.9981673  20.6834083
  41.1338553   6.1451673  20.6914083  41.2688553   5.4121673  20.9354083
  33.1388553  11.4701673  32.1374083  33.6318553  11.4141673  32.8554083
  33.3268553  10.7371673  31.7024083  33.2398553  11.3531673  32.1794083
  32.2548553   5.0421673   5.4051673  31.8138553   5.1601673   6.1481673
  31.9718553   4.2671673   5.1201673  32.1478553   4.9451673   5.4731673
  48.5298553   8.3431673   2.9201673  49.2308553   7.8241673   2.9161673
  47.9428553   7.8981673   2.4511673  48.5468553   8.2001673   2.8501673
  34.7638553   5.7381673   4.4841673  35.3718553   5.5681673   5.0871673
  34.0128553   5.5981673   4.9051673  34.7428553   5.6921673   4.6351673
  32.1948553   7.7771673  11.6601673  32.3238553   7.4971673  12.4761673
  31.5848553   7.2361673  11.3511673  32.1238553   7.6561673  11.7351673
  38.7688553   5.3021673  16.7271673  38.5328553   5.2991673  17.5671673
  38.0208553   5.1541673  16.3031673  38.6228553   5.2791673  16.7881673
  33.6408553   2.2981673   5.8621673  33.1788553   1.9061673   5.2351673
  34.3408553   1.7851673   5.9541673  33.6758553   2.1651673   5.7831673
  38.7508553   8.4941673  13.9901673  38.8888553   9.2541673  13.5831673
  39.5418553   8.1291673  14.0171673  38.8878553   8.5531673  13.9341673
  39.8458553   6.3791673   8.4951673  40.1938553   5.5801673   8.5251673
  40.5108553   6.8831673   8.2401673  39.9958553   6.3351673   8.4621673
  39.9028553   5.8281673   4.7061673  40.2338553   5.1841673   5.1921673
  40.1428553   5.6171673   3.8951673  39.9868553   5.7021673   4.6581673
  32.0068553   9.7691673   6.7751673  31.4148553  10.3271673   6.4621673
  32.4328553   9.5001673   6.0631673  31.9828553   9.8111673   6.6241673
  37.8468553   7.6131673   4.2551673  37.2678553   7.3381673   4.8471673
  38.4708553   7.0041673   4.2801673  37.8538553   7.4831673   4.3461673
  43.9898553   9.9011673   1.7771673  44.7168553  10.3731673   1.8791673
  44.2188553   9.1071673   2.0571673  44.1318553   9.8541673   1.8341673
  42.1578553  10.2931673   3.7671673  42.3718553  10.8201673   4.4291673
  42.9248553  10.1191673   3.3881673  42.3028553  10.3451673   3.8091673
  33.5518553   8.4391673   4.7061673  34.2078553   7.8641673   4.7211673
  33.9408553   9.1881673   4.4851673  33.7068553   8.4641673   4.6761673
  44.5968553  10.3031673  12.0721673  45.3408553  10.7591673  12.0621673
  44.4758553  10.0891673  11.2351673  44.6888553  10.3391673  11.9471673
  34.3698553   6.9261673   8.2061673  34.7928553   6.5701673   7.5321673
  34.6938553   6.5041673   8.8981673  34.4798553   6.8111673   8.2091673
  37.6008553   9.7781673   7.5021673  38.4448553   9.8821673   7.3071673
  37.3038553  10.5961673   7.5701673  37.6818553   9.9141673   7.4831673
  46.1708553  11.4881673   2.1771673  46.8358553  11.3401673   1.6321673
  46.5308553  11.4051673   2.9671673  46.3228553  11.4541673   2.2131673
  36.5988553  10.9971673  13.2421673  36.8908553  10.9301673  14.0621673
  35.9728553  10.3921673  13.1971673  36.5498553  10.8981673  13.3571673
  43.8508553   7.4881673  15.7761673  43.8168553   7.8701673  16.5601673
  44.7048553   7.4461673  15.6051673  43.9718553   7.5381673  15.8671673
  34.5918553   9.1591673  12.3641673  33.8938553   8.6511673  12.4901673
  34.8518553   8.9541673  11.5561673  34.5268553   9.0541673  12.2631673
  42.3028553  10.6521673  13.2741673  43.0708553  10.5721673  12.8681673
  41.7198553  10.5311673  12.6361673  42.3298553  10.6221673  13.1201673
  48.5798553  11.2551673   6.1751673  48.1248553  11.9721673   6.3761673
  47.9658553  10.6841673   5.9331673  48.4218553  11.2771673   6.1691673
  45.5768553   7.1001673   5.7191673  46.2778553   6.6181673   5.9081673
  44.9168553   6.5311673   5.7641673  45.5828553   6.9451673   5.7531673
  35.9528553   8.0101673  14.9311673  36.7938553   8.0731673  14.7091673
  35.9158553   8.4071673  15.7071673  36.0718553   8.0781673  15.0131673
  37.9158553   3.5211673   9.6801673  38.0878553   3.3111673  10.5091673
  37.2608553   2.9871673   9.4641673  37.8448553   3.4111673   9.7711673
  38.6658553   3.4591673  12.2701673  38.7188553   4.3061673  12.4721673
  38.3808553   3.0891673  13.0071673  38.6318553   3.5291673  12.4081673
  44.8428553   4.1541673  11.4001673  44.3288553   3.7421673  11.9711673
  44.7168553   4.9981673  11.5811673  44.7488553   4.2181673  11.5111673
  31.4868553   7.8301673  18.4811673  32.2428553   8.1791673  18.7391673
  31.6638553   6.9771673  18.4241673  31.6248553   7.7551673  18.5111673
  35.2318553   4.3251673   6.8581673  36.0828553   4.2451673   6.6851673
  34.8748553   3.6431673   6.4461673  35.3048553   4.2121673   6.7711673
  33.9988553  11.0501673   8.0951673  33.3258553  10.5521673   7.8501673
  34.4018553  11.2351673   7.3441673  33.9588553  11.0041673   7.9481673
  50.3298553   9.1021673  15.7811673  49.6478553   9.4121673  15.3341673
  49.9608553   8.6441673  16.4261673  50.1738553   9.0801673  15.8101673
  37.5998553   4.3321673   5.0931673  38.3128553   4.8271673   5.1831673
  37.8218553   3.7651673   4.4671673  37.7378553   4.3211673   5.0141673
  31.7558553   5.9751673   8.4131673  31.0888553   6.4631673   8.6891673
  32.4358553   6.5201673   8.4421673  31.7578553   6.1271673   8.4581673
  31.8218553   2.6591673   3.5161673  31.6368553   1.8201673   3.6681673
  32.4808553   2.6231673   2.9461673  31.8918553   2.5301673   3.4541673
  42.1228553   8.0351673   7.4201673  41.5998553   8.6691673   7.1271673
  42.4328553   7.6711673   6.6911673  42.0908553   8.0751673   7.2691673
  31.9938553   6.8231673   3.0911673  32.5458553   7.3921673   3.4551673
  31.7618553   6.3081673   3.7561673  32.0408553   6.8311673   3.2431673
  36.1978553   5.8231673  10.1801673  36.6648553   6.1121673  10.8581673
  36.7698553   5.3451673   9.7261673  36.3518553   5.7951673  10.2131673
  32.7638553   3.4931673   8.7241673  33.1948553   3.3641673   7.9771673
  32.5588553   4.3411673   8.6981673  32.7968553   3.5991673   8.6101673
  48.1638553   9.4841673  13.8711673  47.4928553   9.9981673  14.0891673
  48.2268553   9.5841673  13.0071673  48.0738553   9.5751673  13.7761673
  36.8478553   7.0091673   7.0061673  36.9738553   7.8521673   7.1931673
  37.5158553   6.6101673   7.4021673  36.9658553   7.0751673   7.0921673
  40.1598553  10.2331673  11.4671673  39.8828553   9.5921673  10.9441673
  39.9518553  10.9591673  11.0291673  40.0888553  10.2461673  11.3251673
  33.8588553   2.8111673  17.6341673  33.8218553   3.3121673  16.9201673
  34.1898553   2.0591673  17.3391673  33.9018553   2.7731673  17.4851673
  45.4618553   5.0161673  15.8921673  45.9458553   5.7341673  15.9901673
  45.8558553   4.5891673  15.2411673  45.5918553   5.0591673  15.8101673
  39.7578553   7.8611673  17.0691673  40.1118553   7.6831673  17.8461673
  39.3218553   7.1321673  16.8701673  39.7458553   7.7271673  17.1551673
  47.8908553   5.6471673   5.9621673  48.2468553   5.2971673   6.6771673
  47.8828553   4.9861673   5.3921673  47.9428553   5.4971673   5.9831673
  43.9358553   8.7131673   9.8061673  43.3328553   8.4171673   9.2491673
  44.4808553   9.1651673   9.2971673  43.9268553   8.7361673   9.6481673
  43.9488553   5.5641673   9.2061673  43.1518553   5.7881673   9.4801673
  44.2068553   4.9701673   9.7911673  43.8688553   5.5091673   9.3331673
  37.8408553  10.3761673   3.6541673  37.6938553   9.6001673   4.0251673
  38.5298553  10.2291673   3.1391673  37.9208553  10.2391673   3.6331673
  47.2088553   3.5621673  14.0521673  47.2638553   3.6871673  13.1901673
  47.9618553   3.8821673  14.3541673  47.3278553   3.6271673  13.9691673
  43.3998553   8.9111673  18.3291673  43.5638553   9.1941673  19.1381673
  43.6628553   9.5721673  17.8241673  43.4628553   9.0511673  18.3741673
  42.9398553   3.3681673  13.6521673  42.7848553   3.9781673  14.2561673
  43.4738553   2.8101673  14.0581673  42.9958553   3.3761673  13.8011673
  46.5498553   6.0971673  10.1791673  46.0708553   6.3951673   9.5131673
  46.1938553   5.3211673  10.3571673  46.4268553   6.0261673  10.1071673
  40.5468553   3.8151673   8.7411673  39.6998553   3.6211673   8.8221673
  40.8708553   3.6501673   9.5341673  40.4688553   3.7621673   8.8701673
  34.3948553   3.5081673  11.0571673  35.1168553   3.9961673  11.0201673
  34.1248553   3.4781673  10.2281673  34.4618553   3.5761673  10.9291673
  50.2418553  10.2631673   2.1191673  50.9358553   9.7961673   1.8711673
  49.7028553   9.6651673   2.4561673  50.2648553  10.1051673   2.1321673
  47.4808553   3.0391673  11.2981673  47.4738553   2.2631673  11.6961673
  46.6398553   3.2731673  11.2911673  47.3558553   2.9591673  11.3561673
  33.7898553   4.5601673  15.3351673  33.3688553   4.0421673  14.7741673
  33.4378553   5.3461673  15.1921673  33.6758553   4.6001673  15.2311673
  48.7368553   3.1101673   8.7351673  48.4508553   3.5111673   9.4551673
  49.5968553   3.0481673   8.8621673  48.8218553   3.1601673   8.8601673
  49.8678553   8.7431673   9.2641673  50.1578553   9.0001673   8.4831673
  50.5628553   8.8391673   9.7831673  50.0138553   8.7951673   9.2251673
  49.3948553   5.1401673  14.6571673  50.0228553   4.5911673  14.4011673
  49.3338553   5.7051673  13.9951673  49.4788553   5.1431673  14.5211673
  38.5288553   6.3711673  11.9531673  38.2308553   6.9631673  12.5201673
  38.5838553   6.8131673  11.2041673  38.4928553   6.5241673  11.9261673
  36.5078553   5.3211673  15.3511673  35.7018553   5.0311673  15.5181673
  36.4188553   6.1891673  15.3571673  36.3758553   5.4061673  15.3761673
  41.0448553   2.7941673  11.4441673  41.5208553   3.1681673  12.0721673
  40.2218553   2.9281673  11.7031673  40.9938553   2.8691673  11.5751673
  40.3088553  10.1871673   6.6721673  40.8548553  10.8661673   6.7261673
  39.9588553  10.2691673   5.8771673  40.3378553  10.3001673   6.5621673
  38.4918553   8.4151673  10.0611673  37.8678553   8.9971673   9.8791673
  38.7398553   8.1291673   9.2751673  38.4358553   8.4591673   9.9181673
  42.8008553   5.0491673  17.0501673  43.5578553   5.3351673  16.7241673
  42.2538553   5.1011673  16.3721673  42.8318553   5.0991673  16.9011673
  46.7098553   7.5991673  15.5541673  47.0558553   7.8691673  16.3081673
  47.0038553   8.1811673  14.9741673  46.8048553   7.7251673  15.5801673
  41.1448553  10.0641673  15.9411673  41.6228553   9.4641673  15.5251673
  40.7938553   9.6211673  16.6061673  41.1638553   9.9101673  15.9781673
  47.7328553   3.3711673   4.1221673  48.2088553   2.6421673   4.0741673
  46.9118553   3.0851673   4.0461673  47.6818553   3.2211673   4.1031673
  41.2038553   5.2831673  14.9611673  40.4088553   5.2191673  15.3121673
  41.2748553   6.1301673  14.7661673  41.0968553   5.3981673  14.9841673
  37.0338553  11.4901673  10.2781673  37.0448553  11.5491673  11.1481673
  36.6088553  10.7431673  10.1281673  36.9728553  11.3881673  10.3841673
  43.9488553   4.5381673   6.4771673  44.0248553   4.8791673   7.2761673
  44.1178553   3.6911673   6.5981673  43.9848553   4.4631673   6.6131673
  41.4708553   3.8121673   6.0421673  41.1728553   3.4971673   6.7991673
  42.1658553   4.2851673   6.2771673  41.5298553   3.8351673   6.1891673
  41.6928553   7.9301673  14.0691673  42.3798553   7.8161673  14.5941673
  41.8268553   8.7211673  13.7251673  41.8138553   8.0301673  14.0961673
  33.7978553  10.9881673  15.7201673  33.1438553  10.4191673  15.8181673
  33.4228553  11.7611673  15.8711673  33.6458553  11.0181673  15.7571673
  42.3158553   2.3941673  17.6431673  42.6388553   3.0801673  17.2111673
  41.6118553   2.7171673  18.0451673  42.2588553   2.5431673  17.6381673
  45.3998553  10.7681673   8.5721673  44.9488553  11.4111673   8.9511673
  46.1078553  10.6891673   9.0771673  45.4378553  10.8511673   8.7031673
  42.1008553   5.8581673  11.5021673  41.4068553   6.2601673  11.8451673
  42.7778553   6.2911673  11.8411673  42.0978553   5.9811673  11.6031673
  47.4778553   8.4511673  18.0821673  48.2538553   8.0611673  18.1651673
  47.0088553   8.1151673  18.7371673  47.5228553   8.3441673  18.1911673
  42.4228553   7.4491673   4.6711673  42.2178553   8.2821673   4.5121673
  41.6478553   7.0671673   4.7931673  42.2778553   7.5161673   4.6661673
  32.3408553   3.0701673  13.3481673  32.6608553   3.2891673  12.5671673
  32.2408553   2.2051673  13.2931673  32.3728553   2.9751673  13.2251673
  37.1038553   2.3621673  14.7331673  36.7078553   3.1361673  14.8081673
  36.6978553   1.9891673  14.0571673  36.9858553   2.4211673  14.6441673
  46.6928553   9.4821673   4.6541673  46.5188553   8.8281673   5.2041673
  47.4058553   9.2111673   4.2311673  46.7728553   9.3451673   4.6731673
  44.3678553   6.9351673  12.3451673  44.5738553   7.2361673  13.1371673
  44.3068553   7.6571673  11.8601673  44.3888553   7.0861673  12.3901673
  43.9018553  11.1491673  16.5911673  43.1488553  11.1311673  16.1501673
  44.0698553  12.0011673  16.6751673  43.8158553  11.2721673  16.5381673
  49.1798553   5.5741673  11.8031673  49.1478553   4.7121673  11.6681673
  48.4868553   5.8761673  11.3691673  49.0728553   5.4911673  11.7191673
  37.5738553  10.7721673  16.0091673  37.6148553  10.8981673  16.8721673
  38.2248553  10.2121673  15.8531673  37.6758553  10.7081673  16.1141673
  47.2848553   8.8341673  10.6001673  47.8118553   8.7511673   9.9091673
  46.8938553   8.0561673  10.6541673  47.3048553   8.7071673  10.5061673
  35.1668553   9.1551673  17.3691673  35.7618553   9.5861673  17.8411673
  34.8028553   9.7791673  16.8801673  35.2008553   9.3111673  17.3661673
  33.0938553   7.1441673  14.2981673  32.5198553   7.5601673  14.8071673
  33.8268553   7.6091673  14.3931673  33.1178553   7.2741673  14.3871673
  34.8798553  10.4111673   3.0731673  34.7348553  10.5671673   2.2271673
  35.7458553  10.4901673   3.1511673  34.9868553  10.4461673   2.9601673
  39.0468553   2.8081673   2.8011673  39.1468553   2.9471673   1.9461673
  39.8648553   2.7481673   3.0971673  39.1818553   2.8191673   2.7181673
  48.4018553   3.2901673  17.0141673  49.0358553   3.1201673  17.5881673
  48.8188553   3.6931673  16.3621673  48.5568553   3.3251673  17.0031673
  44.2818553   7.1371673   2.6031673  44.0308553   7.0091673   3.4291673
  43.9648553   6.4421673   2.1821673  44.1978553   7.0161673   2.6631673
  45.8128553   3.4011673  18.3691673  46.6838553   3.3651673  18.3331673
  45.5938553   3.8211673  17.6371673  45.9098553   3.4571673  18.2561673
  35.5668553   9.2261673   9.5501673  35.4878553   8.4161673   9.2341673
  35.1228553   9.7131673   8.9781673  35.4898553   9.1781673   9.4191673
  41.1678553   5.3451673   2.0331673  41.8848553   4.9981673   1.6771673
  41.1338553   6.1451673   1.6851673  41.2688553   5.4121673   1.9291673
  33.1388553  11.4701673  13.1311673  33.6318553  11.4141673  13.8491673
  33.3268553  10.7371673  12.6961673  33.2398553  11.3531673  13.1731673
  23.7120113  67.8985993  81.3031313  23.4670113  68.3865993  80.6231313
  24.5750113  67.8255993  81.2031313  23.8030113  67.9595993  81.1881313
  23.5210113  74.8145993  85.9741313  22.9970113  75.4105993  86.3371313
  23.9180113  74.4465993  86.6581313  23.5020113  74.8485993  86.1291313
  13.1330113  72.7465993  77.9371313  12.3550113  72.9085993  77.5771313
  13.1720113  71.8755993  77.9591313  13.0240113  72.6415993  77.8871313
  26.1920113  75.8815993  82.6501313  26.2720113  75.8855993  81.7811313
  25.6080113  75.2495993  82.7991313  26.1170113  75.7885993  82.5441313
  20.1810113  68.9855993  80.4581313  20.1110113  69.6625993  79.9121313
  20.9220113  68.5975993  80.2091313  20.2800113  69.0285993  80.3401313
  14.7760113  76.2105993  81.8871313  14.3140113  75.8185993  81.2601313
  15.4760113  75.6975993  81.9791313  14.8110113  76.0775993  81.8081313
  19.2840113  71.8205993  87.2341313  19.9620113  71.8385993  86.6851313
  19.2390113  70.9845993  87.4791313  19.3770113  71.6995993  87.1891313
  16.7770113  74.3105993  81.9101313  17.5940113  74.1235993  82.1531313
  16.3000113  73.6965993  82.3061313  16.8270113  74.1925993  82.0051313
  23.0060113  73.8715993  92.0701313  22.1580113  73.7725993  91.8921313
  23.0350113  74.6165993  92.5241313  22.8850113  73.9675993  92.1111313
  17.3740113  69.4045993  81.1761313  17.0780113  69.9055993  80.5261313
  18.2410113  69.4825993  81.1191313  17.4580113  69.4905993  81.0721313
  27.5640113  66.8315993  91.1841313  27.4060113  67.6005993  90.8021313
  26.7920113  66.6115993  91.5281313  27.4260113  66.9125993  91.1791313
  20.3530113  68.5465993  83.3991313  20.4260113  69.4065993  83.5281313
  20.3150113  68.4715993  82.5311313  20.3580113  68.6625993  83.2901313
  25.0260113  71.4725993  75.6981313  24.5760113  72.1535993  76.0051313
  25.1400113  70.9685993  76.4011313  24.9770113  71.4985993  75.8471313
  13.2320113  73.9715993  84.9001313  12.9760113  74.8025993  84.8251313
  12.5680113  73.5885993  85.3171313  13.0960113  74.0375993  84.9511313
  16.2610113  68.7885993  85.3911313  15.7400113  68.1605993  85.0831313
  16.8520113  68.3515993  85.8621313  16.2720113  68.6305993  85.4151313
  30.4200113  71.4455993  81.9931313  30.0740113  72.1235993  82.4191313
  29.7840113  70.8475993  82.0091313  30.2750113  71.4575993  82.0581313
  22.5430113  73.0875993  81.6141313  22.8300113  72.8555993  80.8241313
  23.2750113  73.1665993  82.0831313  22.6930113  73.0645993  81.5671313
  23.2650113  73.4265993  76.7351313  23.5460113  74.2145993  76.9841313
  22.4890113  73.5915993  76.3721313  23.1920113  73.5675993  76.7181313
  30.0950113  69.7685993  87.3621313  30.8520113  69.8405993  86.9341313
  30.1580113  68.9955993  87.7611313  30.2160113  69.6655993  87.3571313
  12.6480113  71.0665993  91.2591313  12.6440113  71.6535993  91.9051313
  13.2420113  71.3785993  90.7021313  12.7350113  71.1995993  91.2721313
  25.6310113  69.4935993  77.6051313  26.1710113  68.8115993  77.6811313
  25.6930113  69.8915993  78.3791313  25.7200113  69.4515993  77.7311313
  13.5850113  70.6615993  80.1741313  13.4710113  69.7975993  80.2051313
  13.1100113  70.9555993  80.8441313  13.4980113  70.5775993  80.2771313
  22.8890113  71.8695993  78.9191313  22.3810113  71.2075993  78.6651313
  22.9410113  72.3735993  78.2091313  22.8220113  71.8465993  78.7771313
  22.8890113  68.8105993  78.8101313  22.4340113  68.4085993  78.1841313
  23.6620113  68.9655993  78.4351313  22.9360113  68.7745993  78.6621313
  21.4870113  71.1775993  83.3321313  21.5610113  71.7455993  82.6741313
  21.6080113  71.6695993  84.0421313  21.5150113  71.3345993  83.3401313
  16.0950113  67.0005993  81.6801313  16.6310113  67.6885993  81.6701313
  16.0980113  66.7265993  80.8521313  16.1740113  67.0615993  81.5561313
  25.2790113  71.3475993  89.2201313  25.1840113  71.6665993  90.0261313
  24.6860113  70.7085993  89.1821313  25.1770113  71.2995993  89.3341313
  26.5350113  67.2915993  82.0561313  26.5840113  66.9735993  82.8671313
  26.8580113  66.6475993  81.5631313  26.5900113  67.1495993  82.1031313
  28.9990113  71.5275993  90.3641313  29.7710113  71.3025993  90.7011313
  28.5240113  71.7445993  91.0641313  29.0430113  71.5265993  90.5171313
  16.5430113  70.8105993  83.3341313  16.8150113  70.3805993  82.6261313
  16.3670113  70.1745993  83.9051313  16.5570113  70.6535993  83.3141313
  14.6840113  71.9125993  86.4161313  15.5270113  72.1325993  86.3731313
  14.2950113  72.4855993  85.8851313  14.7510113  72.0295993  86.3311313
  27.1260113  75.0425993  77.1371313  26.9060113  75.7735993  76.7151313
  26.6780113  75.0935993  77.8841313  27.0270113  75.1575993  77.1851313
  31.3130113  69.9035993  76.5901313  30.6510113  69.3355993  76.6131313
  31.1200113  70.4155993  75.9101313  31.1870113  69.8955993  76.4931313
  31.6360113  74.2815993  89.1461313  31.8510113  73.4815993  88.8701313
  30.7860113  74.3415993  88.9571313  31.5420113  74.1725993  89.0771313
  12.9570113  76.5715993  79.5411313  12.7720113  75.7325993  79.6931313
  13.6160113  76.5355993  78.9711313  13.0270113  76.4425993  79.4791313
  29.3150113  69.4615993  78.8691313  30.0610113  69.0545993  79.0681313
  29.5780113  70.1765993  78.4441313  29.4640113  69.5075993  78.8361313
  25.7690113  71.7495993  83.9421313  26.1130113  71.9015993  84.7291313
  25.3160113  71.0115993  84.0551313  25.7530113  71.6625993  84.0751313
  20.2450113  70.9695993  78.3991313  20.2430113  70.8525993  77.5341313
  20.0640113  71.8175993  78.4911313  20.2180113  71.0775993  78.2851313
  16.5980113  73.8015993  78.0331313  16.4700113  73.3535993  78.7711313
  16.0160113  73.4595993  77.4811313  16.4930113  73.6845993  78.0611313
  16.7650113  75.6315993  84.6321313  15.9840113  75.5725993  84.2491313
  16.8370113  74.8795993  85.0691313  16.6600113  75.5125993  84.6401313
  17.1950113  75.3685993  88.1001313  17.2200113  74.6935993  87.5491313
  16.5490113  75.8645993  87.7881313  17.1040113  75.3415993  87.9731313
  27.0900113  73.0815993  86.4961313  26.4280113  73.4095993  86.9591313
  27.2770113  73.7155993  85.9271313  27.0200113  73.2235993  86.4801313
  23.7350113  68.9875993  89.9251313  23.8840113  68.1625993  89.6821313
  24.1140113  69.0425993  90.7091313  23.8130113  68.8735993  90.0051313
  25.2830113  71.0505993  80.0071313  25.7730113  71.7675993  79.9301313
  24.4930113  71.3115993  79.7441313  25.2390113  71.1945993  79.9571313
  21.8650113  72.5205993  85.7321313  22.3450113  73.2195993  85.9401313
  22.2380113  71.8735993  86.1831313  21.9910113  72.5285993  85.8291313
  24.0540113  75.6895993  78.0061313  24.0460113  76.4115993  77.5161313
  23.4150113  75.8245993  78.5831313  23.9590113  75.8165993  78.0191313
  18.6470113  68.0315993  77.6671313  18.7440113  67.9245993  78.5281313
  17.9390113  68.5375993  77.6021313  18.5570113  68.0905993  77.7851313
  15.7690113  76.3385993  78.9101313  16.0930113  75.5595993  78.6881313
  16.4150113  76.7065993  79.3651313  15.9120113  76.2775993  78.9441313
  12.7660113  67.9995993  79.8781313  12.8950113  67.2915993  79.3861313
  12.3990113  67.6815993  80.6031313  12.7310113  67.8475993  79.9131313
  22.4590113  75.6805993  80.3351313  22.5180113  76.3305993  80.9141313
  22.2700113  74.9845993  80.8261313  22.4400113  75.6735993  80.4931313
  16.9550113  70.1975993  76.8471313  16.4440113  70.2505993  76.1411313
  17.7390113  70.4375993  76.5511313  16.9950113  70.2405993  76.6991313
  18.7600113  72.5915993  83.8171313  19.6060113  72.4015993  83.9151313
  18.3900113  71.8145993  83.6791313  18.8300113  72.4485993  83.8111313
  13.5810113  73.9295993  80.4721313  14.0700113  73.6375993  81.1331313
  13.7100113  73.3365993  79.8451313  13.6720113  73.7985993  80.4771313
  28.6160113  76.9515993  87.3231313  28.6090113  76.1755993  87.7211313
  27.7750113  77.1855993  87.3161313  28.4910113  76.8715993  87.3811313
  18.1060113  75.3635993  75.9581313  17.4960113  74.9585993  76.4321313
  17.7200113  75.4815993  75.1851313  17.9590113  75.3205993  75.9141313
  19.5610113  73.8245993  78.6681313  19.8330113  74.6505993  78.7351313
  18.6980113  73.8995993  78.5721313  19.4740113  73.9575993  78.6631313
  13.0410113  69.7945993  85.2041313  13.0850113  70.1385993  84.4031313
  13.7960113  70.0315993  85.5711313  13.1590113  69.8805993  85.1401313
  28.2940113  74.8345993  91.7411313  28.6130113  75.6205993  91.9441313
  27.9240113  74.5645993  92.4841313  28.2870113  74.9105993  91.8811313
  28.0900113  73.0925993  82.9301313  27.3450113  72.7695993  83.2481313
  28.0920113  73.9185993  83.2101313  27.9800113  73.1665993  83.0181313
  27.0020113  69.4225993  90.3911313  27.7460113  69.8745993  90.3281313
  26.4360113  69.8925993  89.9221313  27.0290113  69.5595993  90.3131313
  22.1800113  76.7065993  87.4691313  22.6560113  77.0805993  88.0971313
  21.3570113  76.8405993  87.7281313  22.1290113  76.7815993  87.6001313
  18.8900113  72.3095993  90.2101313  19.0510113  71.5655993  90.6371313
  18.8450113  72.0605993  89.3751313  18.9070113  72.1625993  90.1501313
  28.2870113  67.4025993  88.0611313  28.0070113  68.2275993  88.0171313
  29.0030113  67.4555993  88.5571313  28.3520113  67.5325993  88.1281313
  20.6420113  68.1175993  90.0901313  21.3470113  68.4375993  89.6881313
  20.8830113  67.3105993  90.3171313  20.7810113  68.0455993  90.0641313
  29.7080113  73.6575993  76.9181313  30.0860113  74.3345993  76.5181313
  28.8660113  73.8815993  76.9491313  29.6390113  73.7905993  76.8631313
  17.1510113  73.1705993  86.1511313  17.5910113  73.0675993  85.4051313
  17.6960113  72.8575993  86.7561313  17.2960113  73.1095993  86.1301313
  25.1670113  72.2725993  91.7431313  24.5190113  72.7425993  92.0911313
  25.7320113  72.1835993  92.4021313  25.1550113  72.3285993  91.8921313
  24.8550113  73.8095993  88.0411313  25.1570113  74.2295993  88.7441313
  24.8910113  72.9695993  88.2731313  24.9050113  73.7475993  88.1791313
  27.4030113  73.2565993  80.2931313  27.6100113  73.0555993  81.1171313
  28.1590113  73.5245993  79.9511313  27.5450113  73.2665993  80.3641313
  20.6980113  68.1555993  86.1981313  19.8720113  68.0065993  86.4351313
  20.6580113  68.1905993  85.3271313  20.5700113  68.1385993  86.1041313
  28.4250113  69.3395993  81.7671313  27.7110113  68.8685993  81.9381313
  28.2630113  69.6805993  80.9811313  28.2960113  69.3205993  81.6761313
  28.8680113  77.2835993  80.1471313  29.3440113  76.5545993  80.0991313
  28.0470113  76.9975993  80.0711313  28.8170113  77.1335993  80.1281313
  13.2630113  68.5535993  92.2331313  13.1230113  69.3485993  91.9021313
  12.4770113  68.3105993  92.5221313  13.1260113  68.6355993  92.2271313
  16.3270113  71.2975993  79.4581313  16.4530113  70.9685993  78.6601313
  15.5150113  71.0485993  79.6571313  16.2260113  71.2125993  79.3701313
  31.0040113  74.4515993  91.9051313  30.1490113  74.3295993  92.0311313
  31.1570113  74.0565993  91.1421313  30.9000113  74.3745993  91.8111313
  25.5170113  75.1165993  90.4811313  25.2620113  74.3975993  90.9031313
  26.3380113  75.2325993  90.7511313  25.6010113  75.0275993  90.5831313
  16.3040113  73.3085993  89.8741313  16.6790113  73.9275993  89.3871313
  16.9780113  72.8345993  90.1591313  16.4590113  73.3305993  89.8441313
  14.0790113  71.7565993  89.1491313  14.1560113  71.5875993  88.2961313
  14.8250113  72.1625993  89.3461313  14.2000113  71.7915993  89.0521313
  29.6380113  74.3965993  79.5891313  29.7410113  74.3385993  78.7251313
  30.3790113  74.0645993  79.9071313  29.7630113  74.3395993  79.5081313
  16.6330113  69.1665993  91.5601313  16.5520113  68.3225993  91.7661313
  16.3190113  69.2105993  90.7471313  16.5750113  69.0485993  91.4701313
  28.7400113  74.5425993  88.9451313  28.7380113  73.6795993  89.0691313
  28.8070113  74.8665993  89.7521313  28.7500113  74.4625993  89.0821313
  13.4760113  76.9825993  89.3731313  13.7960113  77.2015993  88.5921313
  13.3760113  76.1175993  89.3181313  13.5080113  76.8875993  89.2501313
  14.9320113  72.9185993  75.9911313  14.2600113  72.9325993  76.5471313
  15.0270113  72.0705993  75.8071313  14.8470113  72.7955993  76.0461313
  23.6130113  69.5325993  83.5811313  22.9130113  70.0505993  83.5251313
  23.6510113  69.1525993  82.7971313  23.5150113  69.5535993  83.4571313
  27.2110113  70.0485993  86.3811313  28.0660113  70.1475993  86.5261313
  26.8420113  70.6015993  86.9461313  27.2830113  70.1455993  86.4861313
  18.2390113  76.2745993  90.7581313  17.8430113  77.0485993  90.8331313
  17.8330113  75.9015993  90.0821313  18.1210113  76.3335993  90.6691313
  27.5150113  75.3285993  84.8721313  28.1810113  75.8695993  85.0321313
  27.1700113  75.6395993  84.1331313  27.5620113  75.4545993  84.7871313
  18.6680113  69.2515993  88.2081313  17.8040113  69.3355993  88.2881313
  18.8880113  68.7375993  88.8771313  18.5730113  69.1885993  88.3191313
  30.6860113  67.8865993  89.5371313  30.6340113  67.8425993  90.4071313
  31.3730113  67.3835993  89.3471313  30.7800113  67.8065993  89.6371313
  22.7710113  69.9995993  86.5821313  22.0340113  69.5455993  86.6951313
  23.3420113  69.5975993  87.1051313  22.7460113  69.8725993  86.6761313
  20.2740113  74.3285993  91.7861313  19.9520113  73.7525993  91.2161313
  19.9150113  75.0835993  91.5401313  20.1740113  74.3545993  91.6661313
  21.0700113  67.5805993  76.4131313  21.1480113  67.8275993  75.5801313
  20.3270113  67.9575993  76.6711313  20.9720113  67.6725993  76.3281313
  15.8880113  69.3345993  88.8561313  15.5450113  68.5675993  88.6221313
  15.1930113  69.8585993  88.9201313  15.7350113  69.2985993  88.8311313
  24.9340113  68.1905993  85.8331313  25.6040113  68.7345993  85.9601313
  24.4310113  68.6145993  85.2601313  24.9590113  68.3335993  85.7671313
  24.2930113  73.9985993  83.3261313  24.8440113  73.3915993  83.6261313
  23.8680113  74.2615993  84.0411313  24.3120113  73.9475993  83.4751313
  14.5410113  72.6485993  82.8121313  14.1730113  72.9505993  83.5431313
  15.0750113  72.0195993  83.0961313  14.5650113  72.6005993  82.9621313
  26.2630113  75.8295993  79.8881313  26.3310113  74.9795993  80.0691313
  25.4400113  75.9155993  79.6101313  26.1510113  75.7165993  79.8741313
  20.1820113  76.7205993  78.8261313  20.2820113  76.8595993  77.9711313
  21.0000113  76.6605993  79.1221313  20.3170113  76.7315993  78.7431313
  30.0610113  72.7075993  86.7481313  29.2280113  72.9575993  86.6761313
  30.0050113  71.8675993  86.9771313  29.9300113  72.6205993  86.7711313
  19.3210113  69.6955993  91.9421313  19.5550113  69.1195993  91.3291313
  18.4790113  69.5145993  92.0831313  19.2310113  69.5835993  91.8721313
  23.7120113  67.8985993  62.2968903  23.4670113  68.3865993  61.6168903
  24.5750113  67.8255993  62.1968903  23.8030113  67.9595993  62.1818903
  23.5210113  74.8145993  66.9678903  22.9970113  75.4105993  67.3308903
  23.9180113  74.4465993  67.6518903  23.5020113  74.8485993  67.1228903
  13.1330113  72.7465993  58.9308903  12.3550113  72.9085993  58.5708903
  13.1720113  71.8755993  58.9528903  13.0240113  72.6415993  58.8808903
  26.1920113  75.8815993  63.6438903  26.2720113  75.8855993  62.7748903
  25.6080113  75.2495993  63.7928903  26.1170113  75.7885993  63.5378903
  20.1810113  68.9855993  61.4518903  20.1110113  69.6625993  60.9058903
  20.9220113  68.5975993  61.2028903  20.2800113  69.0285993  61.3338903
  14.7760113  76.2105993  62.8808903  14.3140113  75.8185993  62.2538903
  15.4760113  75.6975993  62.9728903  14.8110113  76.0775993  62.8018903
  19.2840113  71.8205993  68.2278903  19.9620113  71.8385993  67.6788903
  19.2390113  70.9845993  68.4728903  19.3770113  71.6995993  68.1828903
  16.7770113  74.3105993  62.9038903  17.5940113  74.1235993  63.1468903
  16.3000113  73.6965993  63.2998903  16.8270113  74.1925993  62.9988903
  23.0060113  73.8715993  73.0638903  22.1580113  73.7725993  72.8858903
  23.0350113  74.6165993  73.5178903  22.8850113  73.9675993  73.1048903
  17.3740113  69.4045993  62.1698903  17.0780113  69.9055993  61.5198903
  18.2410113  69.4825993  62.1128903  17.4580113  69.4905993  62.0658903
  27.5640113  66.8315993  72.1778903  27.4060113  67.6005993  71.7958903
  26.7920113  66.6115993  72.5218903  27.4260113  66.9125993  72.1728903
  20.3530113  68.5465993  64.3928903  20.4260113  69.4065993  64.5218903
  20.3150113  68.4715993  63.5248903  20.3580113  68.6625993  64.2838903
  25.0260113  71.4725993  56.6918903  24.5760113  72.1535993  56.9988903
  25.1400113  70.9685993  57.3948903  24.9770113  71.4985993  56.8408903
  13.2320113  73.9715993  65.8938903  12.9760113  74.8025993  65.8188903
  12.5680113  73.5885993  66.3108903  13.0960113  74.0375993  65.9448903
  16.2610113  68.7885993  66.3848903  15.7400113  68.1605993  66.0768903
  16.8520113  68.3515993  66.8558903  16.2720113  68.6305993  66.4088903
  19.5670113  70.9215993  75.6828903  19.6840113  70.4675993  74.9468903
  19.8550113  71.7195993  75.4798903  19.6270113  70.9725993  75.5438903
  30.4200113  71.4455993  62.9868903  30.0740113  72.1235993  63.4128903
  29.7840113  70.8475993  63.0028903  30.2750113  71.4575993  63.0518903
  15.3000113  70.5185993  74.6668903  14.5220113  70.1285993  74.5948903
  15.7910113  70.1065993  74.0758903  15.2570113  70.3995993  74.5688903
  21.9490113  68.1615993  73.8348903  22.1270113  67.3525993  73.5598903
  21.8060113  68.6025993  73.0958903  21.9540113  68.1075993  73.6848903
  22.5430113  73.0875993  62.6078903  22.8300113  72.8555993  61.8178903
  23.2750113  73.1665993  63.0768903  22.6930113  73.0645993  62.5608903
  23.2650113  73.4265993  57.7288903  23.5460113  74.2145993  57.9778903
  22.4890113  73.5915993  57.3658903  23.1920113  73.5675993  57.7118903
  30.0950113  69.7685993  68.3558903  30.8520113  69.8405993  67.9278903
  30.1580113  68.9955993  68.7548903  30.2160113  69.6655993  68.3508903
  12.6480113  71.0665993  72.2528903  12.6440113  71.6535993  72.8988903
  13.2420113  71.3785993  71.6958903  12.7350113  71.1995993  72.2658903
  25.6310113  69.4935993  58.5988903  26.1710113  68.8115993  58.6748903
  25.6930113  69.8915993  59.3728903  25.7200113  69.4515993  58.7248903
  13.5850113  70.6615993  61.1678903  13.4710113  69.7975993  61.1988903
  13.1100113  70.9555993  61.8378903  13.4980113  70.5775993  61.2708903
  22.8890113  71.8695993  59.9128903  22.3810113  71.2075993  59.6588903
  22.9410113  72.3735993  59.2028903  22.8220113  71.8465993  59.7708903
  22.8890113  68.8105993  59.8038903  22.4340113  68.4085993  59.1778903
  23.6620113  68.9655993  59.4288903  22.9360113  68.7745993  59.6558903
  21.4870113  71.1775993  64.3258903  21.5610113  71.7455993  63.6678903
  21.6080113  71.6695993  65.0358903  21.5150113  71.3345993  64.3338903
  16.0950113  67.0005993  62.6738903  16.6310113  67.6885993  62.6638903
  16.0980113  66.7265993  61.8458903  16.1740113  67.0615993  62.5498903
  25.2790113  71.3475993  70.2138903  25.1840113  71.6665993  71.0198903
  24.6860113  70.7085993  70.1758903  25.1770113  71.2995993  70.3278903
  26.5350113  67.2915993  63.0498903  26.5840113  66.9735993  63.8608903
  26.8580113  66.6475993  62.5568903  26.5900113  67.1495993  63.0968903
  28.9990113  71.5275993  71.3578903  29.7710113  71.3025993  71.6948903
  28.5240113  71.7445993  72.0578903  29.0430113  71.5265993  71.5108903
  16.5430113  70.8105993  64.3278903  16.8150113  70.3805993  63.6198903
  16.3670113  70.1745993  64.8988903  16.5570113  70.6535993  64.3078903
  14.6840113  71.9125993  67.4098903  15.5270113  72.1325993  67.3668903
  14.2950113  72.4855993  66.8788903  14.7510113  72.0295993  67.3248903
  27.1260113  75.0425993  58.1308903  26.9060113  75.7735993  57.7088903
  26.6780113  75.0935993  58.8778903  27.0270113  75.1575993  58.1788903
  31.3130113  69.9035993  57.5838903  30.6510113  69.3355993  57.6068903
  31.1200113  70.4155993  56.9038903  31.1870113  69.8955993  57.4868903
  20.5380113  73.5975993  75.5278903  20.0540113  74.1745993  75.9698903
  20.5100113  73.8925993  74.7068903  20.4620113  73.7265993  75.4718903
  31.6360113  74.2815993  70.1398903  31.8510113  73.4815993  69.8638903
  30.7860113  74.3415993  69.9508903  31.5420113  74.1725993  70.0708903
  12.9570113  76.5715993  60.5348903  12.7720113  75.7325993  60.6868903
  13.6160113  76.5355993  59.9648903  13.0270113  76.4425993  60.4728903
  29.3150113  69.4615993  59.8628903  30.0610113  69.0545993  60.0618903
  29.5780113  70.1765993  59.4378903  29.4640113  69.5075993  59.8298903
  25.7690113  71.7495993  64.9358903  26.1130113  71.9015993  65.7228903
  25.3160113  71.0115993  65.0488903  25.7530113  71.6625993  65.0688903
  20.2450113  70.9695993  59.3928903  20.2430113  70.8525993  58.5278903
  20.0640113  71.8175993  59.4848903  20.2180113  71.0775993  59.2788903
  16.1130113  74.4045993  73.8868903  15.5770113  73.8985993  74.3548903
  16.1330113  74.0145993  73.1068903  16.0360113  74.2715993  73.8408903
  16.5980113  73.8015993  59.0268903  16.4700113  73.3535993  59.7648903
  16.0160113  73.4595993  58.4748903  16.4930113  73.6845993  59.0548903
  16.7650113  75.6315993  65.6258903  15.9840113  75.5725993  65.2428903
  16.8370113  74.8795993  66.0628903  16.6600113  75.5125993  65.6338903
  17.1950113  75.3685993  69.0938903  17.2200113  74.6935993  68.5428903
  16.5490113  75.8645993  68.7818903  17.1040113  75.3415993  68.9668903
  27.0900113  73.0815993  67.4898903  26.4280113  73.4095993  67.9528903
  27.2770113  73.7155993  66.9208903  27.0200113  73.2235993  67.4738903
  23.7350113  68.9875993  70.9188903  23.8840113  68.1625993  70.6758903
  24.1140113  69.0425993  71.7028903  23.8130113  68.8735993  70.9988903
  25.2830113  71.0505993  61.0008903  25.7730113  71.7675993  60.9238903
  24.4930113  71.3115993  60.7378903  25.2390113  71.1945993  60.9508903
  14.9940113  76.7235993  74.6528903  14.9570113  77.2245993  73.9388903
  15.3250113  75.9715993  74.3578903  15.0370113  76.6855993  74.5038903
  21.8650113  72.5205993  66.7258903  22.3450113  73.2195993  66.9338903
  22.2380113  71.8735993  67.1768903  21.9910113  72.5285993  66.8228903
  24.0540113  75.6895993  58.9998903  24.0460113  76.4115993  58.5098903
  23.4150113  75.8245993  59.5768903  23.9590113  75.8165993  59.0128903
  18.6470113  68.0315993  58.6608903  18.7440113  67.9245993  59.5218903
  17.9390113  68.5375993  58.5958903  18.5570113  68.0905993  58.7788903
  29.3760113  67.7725993  74.0578903  28.7390113  67.3725993  73.6158903
  29.4020113  67.3415993  74.8158903  29.2860113  67.6505993  74.1038903
  15.7690113  76.3385993  59.9038903  16.0930113  75.5595993  59.6818903
  16.4150113  76.7065993  60.3588903  15.9120113  76.2775993  59.9378903
  12.7660113  67.9995993  60.8718903  12.8950113  67.2915993  60.3798903
  12.3990113  67.6815993  61.5968903  12.7310113  67.8475993  60.9068903
  22.4590113  75.6805993  61.3288903  22.5180113  76.3305993  61.9078903
  22.2700113  74.9845993  61.8198903  22.4400113  75.6735993  61.4868903
  16.9550113  70.1975993  57.8408903  16.4440113  70.2505993  57.1348903
  17.7390113  70.4375993  57.5448903  16.9950113  70.2405993  57.6928903
  18.7600113  72.5915993  64.8108903  19.6060113  72.4015993  64.9088903
  18.3900113  71.8145993  64.6728903  18.8300113  72.4485993  64.8048903
  13.5810113  73.9295993  61.4658903  14.0700113  73.6375993  62.1268903
  13.7100113  73.3365993  60.8388903  13.6720113  73.7985993  61.4708903
  28.6160113  76.9515993  68.3168903  28.6090113  76.1755993  68.7148903
  27.7750113  77.1855993  68.3098903  28.4910113  76.8715993  68.3748903
  18.1060113  75.3635993  56.9518903  17.4960113  74.9585993  57.4258903
  17.7200113  75.4815993  56.1788903  17.9590113  75.3205993  56.9078903
  19.5610113  73.8245993  59.6618903  19.8330113  74.6505993  59.7288903
  18.6980113  73.8995993  59.5658903  19.4740113  73.9575993  59.6568903
  27.5340113  70.9465993  74.2938903  27.0090113  71.4055993  74.8178903
  27.1730113  70.1515993  74.2878903  27.4030113  70.8965993  74.3698903
  13.0410113  69.7945993  66.1978903  13.0850113  70.1385993  65.3968903
  13.7960113  70.0315993  66.5648903  13.1590113  69.8805993  66.1338903
  26.0260113  74.5155993  74.3698903  26.0990113  74.6195993  75.2328903
  25.3920113  75.0735993  74.1488903  25.9430113  74.6135993  74.4648903
  28.2940113  74.8345993  72.7348903  28.6130113  75.6205993  72.9378903
  27.9240113  74.5645993  73.4778903  28.2870113  74.9105993  72.8748903
  28.0900113  73.0925993  63.9238903  27.3450113  72.7695993  64.2418903
  28.0920113  73.9185993  64.2038903  27.9800113  73.1665993  64.0118903
  30.9920113  75.3765993  75.4698903  30.9400113  75.0355993  74.6688903
  31.7290113  75.8435993  75.4478903  31.0930113  75.3955993  75.3478903
  27.0020113  69.4225993  71.3848903  27.7460113  69.8745993  71.3218903
  26.4360113  69.8925993  70.9158903  27.0290113  69.5595993  71.3068903
  22.1800113  76.7065993  68.4628903  22.6560113  77.0805993  69.0908903
  21.3570113  76.8405993  68.7218903  22.1290113  76.7815993  68.5938903
  18.8900113  72.3095993  71.2038903  19.0510113  71.5655993  71.6308903
  18.8450113  72.0605993  70.3688903  18.9070113  72.1625993  71.1438903
  28.2870113  67.4025993  69.0548903  28.0070113  68.2275993  69.0108903
  29.0030113  67.4555993  69.5508903  28.3520113  67.5325993  69.1218903
  20.6420113  68.1175993  71.0838903  21.3470113  68.4375993  70.6818903
  20.8830113  67.3105993  71.3108903  20.7810113  68.0455993  71.0578903
  29.7080113  73.6575993  57.9118903  30.0860113  74.3345993  57.5118903
  28.8660113  73.8815993  57.9428903  29.6390113  73.7905993  57.8568903
  17.1510113  73.1705993  67.1448903  17.5910113  73.0675993  66.3988903
  17.6960113  72.8575993  67.7498903  17.2960113  73.1095993  67.1238903
  25.1670113  72.2725993  72.7368903  24.5190113  72.7425993  73.0848903
  25.7320113  72.1835993  73.3958903  25.1550113  72.3285993  72.8858903
  24.8550113  73.8095993  69.0348903  25.1570113  74.2295993  69.7378903
  24.8910113  72.9695993  69.2668903  24.9050113  73.7475993  69.1728903
  27.4030113  73.2565993  61.2868903  27.6100113  73.0555993  62.1108903
  28.1590113  73.5245993  60.9448903  27.5450113  73.2665993  61.3578903
  20.6980113  68.1555993  67.1918903  19.8720113  68.0065993  67.4288903
  20.6580113  68.1905993  66.3208903  20.5700113  68.1385993  67.0978903
  28.4250113  69.3395993  62.7608903  27.7110113  68.8685993  62.9318903
  28.2630113  69.6805993  61.9748903  28.2960113  69.3205993  62.6698903
  28.8680113  77.2835993  61.1408903  29.3440113  76.5545993  61.0928903
  28.0470113  76.9975993  61.0648903  28.8170113  77.1335993  61.1218903
  13.2630113  68.5535993  73.2268903  13.1230113  69.3485993  72.8958903
  12.4770113  68.3105993  73.5158903  13.1260113  68.6355993  73.2208903
  16.3270113  71.2975993  60.4518903  16.4530113  70.9685993  59.6538903
  15.5150113  71.0485993  60.6508903  16.2260113  71.2125993  60.3638903
  31.0040113  74.4515993  72.8988903  30.1490113  74.3295993  73.0248903
  31.1570113  74.0565993  72.1358903  30.9000113  74.3745993  72.8048903
  25.5170113  75.1165993  71.4748903  25.2620113  74.3975993  71.8968903
  26.3380113  75.2325993  71.7448903  25.6010113  75.0275993  71.5768903
  23.4510113  76.3065993  74.6618903  23.7740113  76.9925993  74.2298903
  22.7470113  76.6295993  75.0638903  23.3940113  76.4555993  74.6568903
  16.3040113  73.3085993  70.8678903  16.6790113  73.9275993  70.3808903
  16.9780113  72.8345993  71.1528903  16.4590113  73.3305993  70.8378903
  14.0790113  71.7565993  70.1428903  14.1560113  71.5875993  69.2898903
  14.8250113  72.1625993  70.3398903  14.2000113  71.7915993  70.0458903
  29.6380113  74.3965993  60.5828903  29.7410113  74.3385993  59.7188903
  30.3790113  74.0645993  60.9008903  29.7630113  74.3395993  60.5018903
  16.6330113  69.1665993  72.5538903  16.5520113  68.3225993  72.7598903
  16.3190113  69.2105993  71.7408903  16.5750113  69.0485993  72.4638903
  28.7400113  74.5425993  69.9388903  28.7380113  73.6795993  70.0628903
  28.8070113  74.8665993  70.7458903  28.7500113  74.4625993  70.0758903
  13.4760113  76.9825993  70.3668903  13.7960113  77.2015993  69.5858903
  13.3760113  76.1175993  70.3118903  13.5080113  76.8875993  70.2438903
  14.9320113  72.9185993  56.9848903  14.2600113  72.9325993  57.5408903
  15.0270113  72.0705993  56.8008903  14.8470113  72.7955993  57.0398903
  24.6190113  69.3425993  73.7208903  24.7110113  70.0545993  74.2148903
  23.9820113  68.8975993  74.1178903  24.5380113  69.3815993  73.8528903
  23.6130113  69.5325993  64.5748903  22.9130113  70.0505993  64.5188903
  23.6510113  69.1525993  63.7908903  23.5150113  69.5535993  64.4508903
  27.2110113  70.0485993  67.3748903  28.0660113  70.1475993  67.5198903
  26.8420113  70.6015993  67.9398903  27.2830113  70.1455993  67.4798903
  18.2390113  76.2745993  71.7518903  17.8430113  77.0485993  71.8268903
  17.8330113  75.9015993  71.0758903  18.1210113  76.3335993  71.6628903
  27.5150113  75.3285993  65.8658903  28.1810113  75.8695993  66.0258903
  27.1700113  75.6395993  65.1268903  27.5620113  75.4545993  65.7808903
  18.6680113  69.2515993  69.2018903  17.8040113  69.3355993  69.2818903
  18.8880113  68.7375993  69.8708903  18.5730113  69.1885993  69.3128903
  30.6860113  67.8865993  70.5308903  30.6340113  67.8425993  71.4008903
  31.3730113  67.3835993  70.3408903  30.7800113  67.8065993  70.6308903
  22.7710113  69.9995993  67.5758903  22.0340113  69.5455993  67.6888903
  23.3420113  69.5975993  68.0988903  22.7460113  69.8725993  67.6698903
  20.2740113  74.3285993  72.7798903  19.9520113  73.7525993  72.2098903
  19.9150113  75.0835993  72.5338903  20.1740113  74.3545993  72.6598903
  21.0700113  67.5805993  57.4068903  21.1480113  67.8275993  56.5738903
  20.3270113  67.9575993  57.6648903  20.9720113  67.6725993  57.3218903
  15.8880113  69.3345993  69.8498903  15.5450113  68.5675993  69.6158903
  15.1930113  69.8585993  69.9138903  15.7350113  69.2985993  69.8248903
  24.9340113  68.1905993  66.8268903  25.6040113  68.7345993  66.9538903
  24.4310113  68.6145993  66.2538903  24.9590113  68.3335993  66.7608903
  24.2930113  73.9985993  64.3198903  24.8440113  73.3915993  64.6198903
  23.8680113  74.2615993  65.0348903  24.3120113  73.9475993  64.4688903
  14.5410113  72.6485993  63.8058903  14.1730113  72.9505993  64.5368903
  15.0750113  72.0195993  64.0898903  14.5650113  72.6005993  63.9558903
  26.2630113  75.8295993  60.8818903  26.3310113  74.9795993  61.0628903
  25.4400113  75.9155993  60.6038903  26.1510113  75.7165993  60.8678903
  20.1820113  76.7205993  59.8198903  20.2820113  76.8595993  58.9648903
  21.0000113  76.6605993  60.1158903  20.3170113  76.7315993  59.7368903
  30.1620113  71.7665993  74.7708903  29.9660113  72.4105993  75.3258903
  29.4400113  71.2765993  74.7628903  30.0270113  71.7895993  74.8518903
  30.0610113  72.7075993  67.7418903  29.2280113  72.9575993  67.6698903
  30.0050113  71.8675993  67.9708903  29.9300113  72.6205993  67.7648903
  19.3210113  69.6955993  72.9358903  19.5550113  69.1195993  72.3228903
  18.4790113  69.5145993  73.0768903  19.2310113  69.5835993  72.8658903
  23.7120113  67.8985993  43.2906493  23.4670113  68.3865993  42.6106493
  24.5750113  67.8255993  43.1906493  23.8030113  67.9595993  43.1756493
  23.5210113  74.8145993  47.9616493  22.9970113  75.4105993  48.3246493
  23.9180113  74.4465993  48.6456493  23.5020113  74.8485993  48.1166493
  13.1330113  72.7465993  39.9246493  12.3550113  72.9085993  39.5646493
  13.1720113  71.8755993  39.9466493  13.0240113  72.6415993  39.8746493
  26.1920113  75.8815993  44.6376493  26.2720113  75.8855993  43.7686493
  25.6080113  75.2495993  44.7866493  26.1170113  75.7885993  44.5316493
  20.1810113  68.9855993  42.4456493  20.1110113  69.6625993  41.8996493
  20.9220113  68.5975993  42.1966493  20.2800113  69.0285993  42.3276493
  14.7760113  76.2105993  43.8746493  14.3140113  75.8185993  43.2476493
  15.4760113  75.6975993  43.9666493  14.8110113  76.0775993  43.7956493
  19.2840113  71.8205993  49.2216493  19.9620113  71.8385993  48.6726493
  19.2390113  70.9845993  49.4666493  19.3770113  71.6995993  49.1766493
  16.7770113  74.3105993  43.8976493  17.5940113  74.1235993  44.1406493
  16.3000113  73.6965993  44.2936493  16.8270113  74.1925993  43.9926493
  23.0060113  73.8715993  54.0576493  22.1580113  73.7725993  53.8796493
  23.0350113  74.6165993  54.5116493  22.8850113  73.9675993  54.0986493
  17.3740113  69.4045993  43.1636493  17.0780113  69.9055993  42.5136493
  18.2410113  69.4825993  43.1066493  17.4580113  69.4905993  43.0596493
  27.5640113  66.8315993  53.1716493  27.4060113  67.6005993  52.7896493
  26.7920113  66.6115993  53.5156493  27.4260113  66.9125993  53.1666493
  20.3530113  68.5465993  45.3866493  20.4260113  69.4065993  45.5156493
  20.3150113  68.4715993  44.5186493  20.3580113  68.6625993  45.2776493
  25.0260113  71.4725993  37.6856493  24.5760113  72.1535993  37.9926493
  25.1400113  70.9685993  38.3886493  24.9770113  71.4985993  37.8346493
  13.2320113  73.9715993  46.8876493  12.9760113  74.8025993  46.8126493
  12.5680113  73.5885993  47.3046493  13.0960113  74.0375993  46.9386493
  16.2610113  68.7885993  47.3786493  15.7400113  68.1605993  47.0706493
  16.8520113  68.3515993  47.8496493  16.2720113  68.6305993  47.4026493
  19.5670113  70.9215993  56.6766493  19.6840113  70.4675993  55.9406493
  19.8550113  71.7195993  56.4736493  19.6270113  70.9725993  56.5376493
  30.4200113  71.4455993  43.9806493  30.0740113  72.1235993  44.4066493
  29.7840113  70.8475993  43.9966493  30.2750113  71.4575993  44.0456493
  15.3000113  70.5185993  55.6606493  14.5220113  70.1285993  55.5886493
  15.7910113  70.1065993  55.0696493  15.2570113  70.3995993  55.5626493
  21.9490113  68.1615993  54.8286493  22.1270113  67.3525993  54.5536493
  21.8060113  68.6025993  54.0896493  21.9540113  68.1075993  54.6786493
  22.5430113  73.0875993  43.6016493  22.8300113  72.8555993  42.8116493
  23.2750113  73.1665993  44.0706493  22.6930113  73.0645993  43.5546493
  23.2650113  73.4265993  38.7226493  23.5460113  74.2145993  38.9716493
  22.4890113  73.5915993  38.3596493  23.1920113  73.5675993  38.7056493
  30.0950113  69.7685993  49.3496493  30.8520113  69.8405993  48.9216493
  30.1580113  68.9955993  49.7486493  30.2160113  69.6655993  49.3446493
  12.6480113  71.0665993  53.2466493  12.6440113  71.6535993  53.8926493
  13.2420113  71.3785993  52.6896493  12.7350113  71.1995993  53.2596493
  25.6310113  69.4935993  39.5926493  26.1710113  68.8115993  39.6686493
  25.6930113  69.8915993  40.3666493  25.7200113  69.4515993  39.7186493
  13.5850113  70.6615993  42.1616493  13.4710113  69.7975993  42.1926493
  13.1100113  70.9555993  42.8316493  13.4980113  70.5775993  42.2646493
  22.8890113  71.8695993  40.9066493  22.3810113  71.2075993  40.6526493
  22.9410113  72.3735993  40.1966493  22.8220113  71.8465993  40.7646493
  22.8890113  68.8105993  40.7976493  22.4340113  68.4085993  40.1716493
  23.6620113  68.9655993  40.4226493  22.9360113  68.7745993  40.6496493
  21.4870113  71.1775993  45.3196493  21.5610113  71.7455993  44.6616493
  21.6080113  71.6695993  46.0296493  21.5150113  71.3345993  45.3276493
  16.0950113  67.0005993  43.6676493  16.6310113  67.6885993  43.6576493
  16.0980113  66.7265993  42.8396493  16.1740113  67.0615993  43.5436493
  25.2790113  71.3475993  51.2076493  25.1840113  71.6665993  52.0136493
  24.6860113  70.7085993  51.1696493  25.1770113  71.2995993  51.3216493
  26.5350113  67.2915993  44.0436493  26.5840113  66.9735993  44.8546493
  26.8580113  66.6475993  43.5506493  26.5900113  67.1495993  44.0906493
  28.9990113  71.5275993  52.3516493  29.7710113  71.3025993  52.6886493
  28.5240113  71.7445993  53.0516493  29.0430113  71.5265993  52.5046493
  16.5430113  70.8105993  45.3216493  16.8150113  70.3805993  44.6136493
  16.3670113  70.1745993  45.8926493  16.5570113  70.6535993  45.3016493
  14.6840113  71.9125993  48.4036493  15.5270113  72.1325993  48.3606493
  14.2950113  72.4855993  47.8726493  14.7510113  72.0295993  48.3186493
  27.1260113  75.0425993  39.1246493  26.9060113  75.7735993  38.7026493
  26.6780113  75.0935993  39.8716493  27.0270113  75.1575993  39.1726493
  31.3130113  69.9035993  38.5776493  30.6510113  69.3355993  38.6006493
  31.1200113  70.4155993  37.8976493  31.1870113  69.8955993  38.4806493
  20.5380113  73.5975993  56.5216493  20.0540113  74.1745993  56.9636493
  20.5100113  73.8925993  55.7006493  20.4620113  73.7265993  56.4656493
  31.6360113  74.2815993  51.1336493  31.8510113  73.4815993  50.8576493
  30.7860113  74.3415993  50.9446493  31.5420113  74.1725993  51.0646493
  12.9570113  76.5715993  41.5286493  12.7720113  75.7325993  41.6806493
  13.6160113  76.5355993  40.9586493  13.0270113  76.4425993  41.4666493
  29.3150113  69.4615993  40.8566493  30.0610113  69.0545993  41.0556493
  29.5780113  70.1765993  40.4316493  29.4640113  69.5075993  40.8236493
  25.7690113  71.7495993  45.9296493  26.1130113  71.9015993  46.7166493
  25.3160113  71.0115993  46.0426493  25.7530113  71.6625993  46.0626493
  20.2450113  70.9695993  40.3866493  20.2430113  70.8525993  39.5216493
  20.0640113  71.8175993  40.4786493  20.2180113  71.0775993  40.2726493
  16.1130113  74.4045993  54.8806493  15.5770113  73.8985993  55.3486493
  16.1330113  74.0145993  54.1006493  16.0360113  74.2715993  54.8346493
  16.5980113  73.8015993  40.0206493  16.4700113  73.3535993  40.7586493
  16.0160113  73.4595993  39.4686493  16.4930113  73.6845993  40.0486493
  16.7650113  75.6315993  46.6196493  15.9840113  75.5725993  46.2366493
  16.8370113  74.8795993  47.0566493  16.6600113  75.5125993  46.6276493
  17.1950113  75.3685993  50.0876493  17.2200113  74.6935993  49.5366493
  16.5490113  75.8645993  49.7756493  17.1040113  75.3415993  49.9606493
  27.0900113  73.0815993  48.4836493  26.4280113  73.4095993  48.9466493
  27.2770113  73.7155993  47.9146493  27.0200113  73.2235993  48.4676493
  23.7350113  68.9875993  51.9126493  23.8840113  68.1625993  51.6696493
  24.1140113  69.0425993  52.6966493  23.8130113  68.8735993  51.9926493
  25.2830113  71.0505993  41.9946493  25.7730113  71.7675993  41.9176493
  24.4930113  71.3115993  41.7316493  25.2390113  71.1945993  41.9446493
  14.9940113  76.7235993  55.6466493  14.9570113  77.2245993  54.9326493
  15.3250113  75.9715993  55.3516493  15.0370113  76.6855993  55.4976493
  21.8650113  72.5205993  47.7196493  22.3450113  73.2195993  47.9276493
  22.2380113  71.8735993  48.1706493  21.9910113  72.5285993  47.8166493
  24.0540113  75.6895993  39.9936493  24.0460113  76.4115993  39.5036493
  23.4150113  75.8245993  40.5706493  23.9590113  75.8165993  40.0066493
  18.6470113  68.0315993  39.6546493  18.7440113  67.9245993  40.5156493
  17.9390113  68.5375993  39.5896493  18.5570113  68.0905993  39.7726493
  29.3760113  67.7725993  55.0516493  28.7390113  67.3725993  54.6096493
  29.4020113  67.3415993  55.8096493  29.2860113  67.6505993  55.0976493
  15.7690113  76.3385993  40.8976493  16.0930113  75.5595993  40.6756493
  16.4150113  76.7065993  41.3526493  15.9120113  76.2775993  40.9316493
  12.7660113  67.9995993  41.8656493  12.8950113  67.2915993  41.3736493
  12.3990113  67.6815993  42.5906493  12.7310113  67.8475993  41.9006493
  22.4590113  75.6805993  42.3226493  22.5180113  76.3305993  42.9016493
  22.2700113  74.9845993  42.8136493  22.4400113  75.6735993  42.4806493
  16.9550113  70.1975993  38.8346493  16.4440113  70.2505993  38.1286493
  17.7390113  70.4375993  38.5386493  16.9950113  70.2405993  38.6866493
  18.7600113  72.5915993  45.8046493  19.6060113  72.4015993  45.9026493
  18.3900113  71.8145993  45.6666493  18.8300113  72.4485993  45.7986493
  13.5810113  73.9295993  42.4596493  14.0700113  73.6375993  43.1206493
  13.7100113  73.3365993  41.8326493  13.6720113  73.7985993  42.4646493
  28.6160113  76.9515993  49.3106493  28.6090113  76.1755993  49.7086493
  27.7750113  77.1855993  49.3036493  28.4910113  76.8715993  49.3686493
  18.1060113  75.3635993  37.9456493  17.4960113  74.9585993  38.4196493
  17.7200113  75.4815993  37.1726493  17.9590113  75.3205993  37.9016493
  19.5610113  73.8245993  40.6556493  19.8330113  74.6505993  40.7226493
  18.6980113  73.8995993  40.5596493  19.4740113  73.9575993  40.6506493
  27.5340113  70.9465993  55.2876493  27.0090113  71.4055993  55.8116493
  27.1730113  70.1515993  55.2816493  27.4030113  70.8965993  55.3636493
  13.0410113  69.7945993  47.1916493  13.0850113  70.1385993  46.3906493
  13.7960113  70.0315993  47.5586493  13.1590113  69.8805993  47.1276493
  26.0260113  74.5155993  55.3636493  26.0990113  74.6195993  56.2266493
  25.3920113  75.0735993  55.1426493  25.9430113  74.6135993  55.4586493
  28.2940113  74.8345993  53.7286493  28.6130113  75.6205993  53.9316493
  27.9240113  74.5645993  54.4716493  28.2870113  74.9105993  53.8686493
  28.0900113  73.0925993  44.9176493  27.3450113  72.7695993  45.2356493
  28.0920113  73.9185993  45.1976493  27.9800113  73.1665993  45.0056493
  30.9920113  75.3765993  56.4636493  30.9400113  75.0355993  55.6626493
  31.7290113  75.8435993  56.4416493  31.0930113  75.3955993  56.3416493
  27.0020113  69.4225993  52.3786493  27.7460113  69.8745993  52.3156493
  26.4360113  69.8925993  51.9096493  27.0290113  69.5595993  52.3006493
  22.1800113  76.7065993  49.4566493  22.6560113  77.0805993  50.0846493
  21.3570113  76.8405993  49.7156493  22.1290113  76.7815993  49.5876493
  18.8900113  72.3095993  52.1976493  19.0510113  71.5655993  52.6246493
  18.8450113  72.0605993  51.3626493  18.9070113  72.1625993  52.1376493
  28.2870113  67.4025993  50.0486493  28.0070113  68.2275993  50.0046493
  29.0030113  67.4555993  50.5446493  28.3520113  67.5325993  50.1156493
  20.6420113  68.1175993  52.0776493  21.3470113  68.4375993  51.6756493
  20.8830113  67.3105993  52.3046493  20.7810113  68.0455993  52.0516493
  29.7080113  73.6575993  38.9056493  30.0860113  74.3345993  38.5056493
  28.8660113  73.8815993  38.9366493  29.6390113  73.7905993  38.8506493
  17.1510113  73.1705993  48.1386493  17.5910113  73.0675993  47.3926493
  17.6960113  72.8575993  48.7436493  17.2960113  73.1095993  48.1176493
  25.1670113  72.2725993  53.7306493  24.5190113  72.7425993  54.0786493
  25.7320113  72.1835993  54.3896493  25.1550113  72.3285993  53.8796493
  24.8550113  73.8095993  50.0286493  25.1570113  74.2295993  50.7316493
  24.8910113  72.9695993  50.2606493  24.9050113  73.7475993  50.1666493
  27.4030113  73.2565993  42.2806493  27.6100113  73.0555993  43.1046493
  28.1590113  73.5245993  41.9386493  27.5450113  73.2665993  42.3516493
  20.6980113  68.1555993  48.1856493  19.8720113  68.0065993  48.4226493
  20.6580113  68.1905993  47.3146493  20.5700113  68.1385993  48.0916493
  28.4250113  69.3395993  43.7546493  27.7110113  68.8685993  43.9256493
  28.2630113  69.6805993  42.9686493  28.2960113  69.3205993  43.6636493
  28.8680113  77.2835993  42.1346493  29.3440113  76.5545993  42.0866493
  28.0470113  76.9975993  42.0586493  28.8170113  77.1335993  42.1156493
  13.2630113  68.5535993  54.2206493  13.1230113  69.3485993  53.8896493
  12.4770113  68.3105993  54.5096493  13.1260113  68.6355993  54.2146493
  16.3270113  71.2975993  41.4456493  16.4530113  70.9685993  40.6476493
  15.5150113  71.0485993  41.6446493  16.2260113  71.2125993  41.3576493
  31.0040113  74.4515993  53.8926493  30.1490113  74.3295993  54.0186493
  31.1570113  74.0565993  53.1296493  30.9000113  74.3745993  53.7986493
  25.5170113  75.1165993  52.4686493  25.2620113  74.3975993  52.8906493
  26.3380113  75.2325993  52.7386493  25.6010113  75.0275993  52.5706493
  23.4510113  76.3065993  55.6556493  23.7740113  76.9925993  55.2236493
  22.7470113  76.6295993  56.0576493  23.3940113  76.4555993  55.6506493
  16.3040113  73.3085993  51.8616493  16.6790113  73.9275993  51.3746493
  16.9780113  72.8345993  52.1466493  16.4590113  73.3305993  51.8316493
  14.0790113  71.7565993  51.1366493  14.1560113  71.5875993  50.2836493
  14.8250113  72.1625993  51.3336493  14.2000113  71.7915993  51.0396493
  29.6380113  74.3965993  41.5766493  29.7410113  74.3385993  40.7126493
  30.3790113  74.0645993  41.8946493  29.7630113  74.3395993  41.4956493
  16.6330113  69.1665993  53.5476493  16.5520113  68.3225993  53.7536493
  16.3190113  69.2105993  52.7346493  16.5750113  69.0485993  53.4576493
  28.7400113  74.5425993  50.9326493  28.7380113  73.6795993  51.0566493
  28.8070113  74.8665993  51.7396493  28.7500113  74.4625993  51.0696493
  13.4760113  76.9825993  51.3606493  13.7960113  77.2015993  50.5796493
  13.3760113  76.1175993  51.3056493  13.5080113  76.8875993  51.2376493
  14.9320113  72.9185993  37.9786493  14.2600113  72.9325993  38.5346493
  15.0270113  72.0705993  37.7946493  14.8470113  72.7955993  38.0336493
  24.6190113  69.3425993  54.7146493  24.7110113  70.0545993  55.2086493
  23.9820113  68.8975993  55.1116493  24.5380113  69.3815993  54.8466493
  23.6130113  69.5325993  45.5686493  22.9130113  70.0505993  45.5126493
  23.6510113  69.1525993  44.7846493  23.5150113  69.5535993  45.4446493
  27.2110113  70.0485993  48.3686493  28.0660113  70.1475993  48.5136493
  26.8420113  70.6015993  48.9336493  27.2830113  70.1455993  48.4736493
  18.2390113  76.2745993  52.7456493  17.8430113  77.0485993  52.8206493
  17.8330113  75.9015993  52.0696493  18.1210113  76.3335993  52.6566493
  27.5150113  75.3285993  46.8596493  28.1810113  75.8695993  47.0196493
  27.1700113  75.6395993  46.1206493  27.5620113  75.4545993  46.7746493
  18.6680113  69.2515993  50.1956493  17.8040113  69.3355993  50.2756493
  18.8880113  68.7375993  50.8646493  18.5730113  69.1885993  50.3066493
  30.6860113  67.8865993  51.5246493  30.6340113  67.8425993  52.3946493
  31.3730113  67.3835993  51.3346493  30.7800113  67.8065993  51.6246493
  22.7710113  69.9995993  48.5696493  22.0340113  69.5455993  48.6826493
  23.3420113  69.5975993  49.0926493  22.7460113  69.8725993  48.6636493
  20.2740113  74.3285993  53.7736493  19.9520113  73.7525993  53.2036493
  19.9150113  75.0835993  53.5276493  20.1740113  74.3545993  53.6536493
  21.0700113  67.5805993  38.4006493  21.1480113  67.8275993  37.5676493
  20.3270113  67.9575993  38.6586493  20.9720113  67.6725993  38.3156493
  15.8880113  69.3345993  50.8436493  15.5450113  68.5675993  50.6096493
  15.1930113  69.8585993  50.9076493  15.7350113  69.2985993  50.8186493
  24.9340113  68.1905993  47.8206493  25.6040113  68.7345993  47.9476493
  24.4310113  68.6145993  47.2476493  24.9590113  68.3335993  47.7546493
  24.2930113  73.9985993  45.3136493  24.8440113  73.3915993  45.6136493
  23.8680113  74.2615993  46.0286493  24.3120113  73.9475993  45.4626493
  14.5410113  72.6485993  44.7996493  14.1730113  72.9505993  45.5306493
  15.0750113  72.0195993  45.0836493  14.5650113  72.6005993  44.9496493
  26.2630113  75.8295993  41.8756493  26.3310113  74.9795993  42.0566493
  25.4400113  75.9155993  41.5976493  26.1510113  75.7165993  41.8616493
  20.1820113  76.7205993  40.8136493  20.2820113  76.8595993  39.9586493
  21.0000113  76.6605993  41.1096493  20.3170113  76.7315993  40.7306493
  30.1620113  71.7665993  55.7646493  29.9660113  72.4105993  56.3196493
  29.4400113  71.2765993  55.7566493  30.0270113  71.7895993  55.8456493
  30.0610113  72.7075993  48.7356493  29.2280113  72.9575993  48.6636493
  30.0050113  71.8675993  48.9646493  29.9300113  72.6205993  48.7586493
  19.3210113  69.6955993  53.9296493  19.5550113  69.1195993  53.3166493
  18.4790113  69.5145993  54.0706493  19.2310113  69.5835993  53.8596493
  23.7120113  67.8985993  24.2844083  23.4670113  68.3865993  23.6044083
  24.5750113  67.8255993  24.1844083  23.8030113  67.9595993  24.1694083
  23.5210113  74.8145993  28.9554083  22.9970113  75.4105993  29.3184083
  23.9180113  74.4465993  29.6394083  23.5020113  74.8485993  29.1104083
  13.1330113  72.7465993  20.9184083  12.3550113  72.9085993  20.5584083
  13.1720113  71.8755993  20.9404083  13.0240113  72.6415993  20.8684083
  26.1920113  75.8815993  25.6314083  26.2720113  75.8855993  24.7624083
  25.6080113  75.2495993  25.7804083  26.1170113  75.7885993  25.5254083
  20.1810113  68.9855993  23.4394083  20.1110113  69.6625993  22.8934083
  20.9220113  68.5975993  23.1904083  20.2800113  69.0285993  23.3214083
  14.7760113  76.2105993  24.8684083  14.3140113  75.8185993  24.2414083
  15.4760113  75.6975993  24.9604083  14.8110113  76.0775993  24.7894083
  19.2840113  71.8205993  30.2154083  19.9620113  71.8385993  29.6664083
  19.2390113  70.9845993  30.4604083  19.3770113  71.6995993  30.1704083
  16.7770113  74.3105993  24.8914083  17.5940113  74.1235993  25.1344083
  16.3000113  73.6965993  25.2874083  16.8270113  74.1925993  24.9864083
  23.0060113  73.8715993  35.0514083  22.1580113  73.7725993  34.8734083
  23.0350113  74.6165993  35.5054083  22.8850113  73.9675993  35.0924083
  17.3740113  69.4045993  24.1574083  17.0780113  69.9055993  23.5074083
  18.2410113  69.4825993  24.1004083  17.4580113  69.4905993  24.0534083
  27.5640113  66.8315993  34.1654083  27.4060113  67.6005993  33.7834083
  26.7920113  66.6115993  34.5094083  27.4260113  66.9125993  34.1604083
  20.3530113  68.5465993  26.3804083  20.4260113  69.4065993  26.5094083
  20.3150113  68.4715993  25.5124083  20.3580113  68.6625993  26.2714083
  25.0260113  71.4725993  18.6794083  24.5760113  72.1535993  18.9864083
  25.1400113  70.9685993  19.3824083  24.9770113  71.4985993  18.8284083
  13.2320113  73.9715993  27.8814083  12.9760113  74.8025993  27.8064083
  12.5680113  73.5885993  28.2984083  13.0960113  74.0375993  27.9324083
  16.2610113  68.7885993  28.3724083  15.7400113  68.1605993  28.0644083
  16.8520113  68.3515993  28.8434083  16.2720113  68.6305993  28.3964083
  19.5670113  70.9215993  37.6704083  19.6840113  70.4675993  36.9344083
  19.8550113  71.7195993  37.4674083  19.6270113  70.9725993  37.5314083
  30.4200113  71.4455993  24.9744083  30.0740113  72.1235993  25.4004083
  29.7840113  70.8475993  24.9904083  30.2750113  71.4575993  25.0394083
  15.3000113  70.5185993  36.6544083  14.5220113  70.1285993  36.5824083
  15.7910113  70.1065993  36.0634083  15.2570113  70.3995993  36.5564083
  21.9490113  68.1615993  35.8224083  22.1270113  67.3525993  35.5474083
  21.8060113  68.6025993  35.0834083  21.9540113  68.1075993  35.6724083
  22.5430113  73.0875993  24.5954083  22.8300113  72.8555993  23.8054083
  23.2750113  73.1665993  25.0644083  22.6930113  73.0645993  24.5484083
  23.2650113  73.4265993  19.7164083  23.5460113  74.2145993  19.9654083
  22.4890113  73.5915993  19.3534083  23.1920113  73.5675993  19.6994083
  30.0950113  69.7685993  30.3434083  30.8520113  69.8405993  29.9154083
  30.1580113  68.9955993  30.7424083  30.2160113  69.6655993  30.3384083
  12.6480113  71.0665993  34.2404083  12.6440113  71.6535993  34.8864083
  13.2420113  71.3785993  33.6834083  12.7350113  71.1995993  34.2534083
  25.6310113  69.4935993  20.5864083  26.1710113  68.8115993  20.6624083
  25.6930113  69.8915993  21.3604083  25.7200113  69.4515993  20.7124083
  13.5850113  70.6615993  23.1554083  13.4710113  69.7975993  23.1864083
  13.1100113  70.9555993  23.8254083  13.4980113  70.5775993  23.2584083
  22.8890113  71.8695993  21.9004083  22.3810113  71.2075993  21.6464083
  22.9410113  72.3735993  21.1904083  22.8220113  71.8465993  21.7584083
  22.8890113  68.8105993  21.7914083  22.4340113  68.4085993  21.1654083
  23.6620113  68.9655993  21.4164083  22.9360113  68.7745993  21.6434083
  21.4870113  71.1775993  26.3134083  21.5610113  71.7455993  25.6554083
  21.6080113  71.6695993  27.0234083  21.5150113  71.3345993  26.3214083
  16.0950113  67.0005993  24.6614083  16.6310113  67.6885993  24.6514083
  16.0980113  66.7265993  23.8334083  16.1740113  67.0615993  24.5374083
  25.2790113  71.3475993  32.2014083  25.1840113  71.6665993  33.0074083
  24.6860113  70.7085993  32.1634083  25.1770113  71.2995993  32.3154083
  26.5350113  67.2915993  25.0374083  26.5840113  66.9735993  25.8484083
  26.8580113  66.6475993  24.5444083  26.5900113  67.1495993  25.0844083
  28.9990113  71.5275993  33.3454083  29.7710113  71.3025993  33.6824083
  28.5240113  71.7445993  34.0454083  29.0430113  71.5265993  33.4984083
  16.5430113  70.8105993  26.3154083  16.8150113  70.3805993  25.6074083
  16.3670113  70.1745993  26.8864083  16.5570113  70.6535993  26.2954083
  14.6840113  71.9125993  29.3974083  15.5270113  72.1325993  29.3544083
  14.2950113  72.4855993  28.8664083  14.7510113  72.0295993  29.3124083
  27.1260113  75.0425993  20.1184083  26.9060113  75.7735993  19.6964083
  26.6780113  75.0935993  20.8654083  27.0270113  75.1575993  20.1664083
  31.3130113  69.9035993  19.5714083  30.6510113  69.3355993  19.5944083
  31.1200113  70.4155993  18.8914083  31.1870113  69.8955993  19.4744083
  20.5380113  73.5975993  37.5154083  20.0540113  74.1745993  37.9574083
  20.5100113  73.8925993  36.6944083  20.4620113  73.7265993  37.4594083
  31.6360113  74.2815993  32.1274083  31.8510113  73.4815993  31.8514083
  30.7860113  74.3415993  31.9384083  31.5420113  74.1725993  32.0584083
  12.9570113  76.5715993  22.5224083  12.7720113  75.7325993  22.6744083
  13.6160113  76.5355993  21.9524083  13.0270113  76.4425993  22.4604083
  29.3150113  69.4615993  21.8504083  30.0610113  69.0545993  22.0494083
  29.5780113  70.1765993  21.4254083  29.4640113  69.5075993  21.8174083
  25.7690113  71.7495993  26.9234083  26.1130113  71.9015993  27.7104083
  25.3160113  71.0115993  27.0364083  25.7530113  71.6625993  27.0564083
  20.2450113  70.9695993  21.3804083  20.2430113  70.8525993  20.5154083
  20.0640113  71.8175993  21.4724083  20.2180113  71.0775993  21.2664083
  16.1130113  74.4045993  35.8744083  15.5770113  73.8985993  36.3424083
  16.1330113  74.0145993  35.0944083  16.0360113  74.2715993  35.8284083
  16.5980113  73.8015993  21.0144083  16.4700113  73.3535993  21.7524083
  16.0160113  73.4595993  20.4624083  16.4930113  73.6845993  21.0424083
  16.7650113  75.6315993  27.6134083  15.9840113  75.5725993  27.2304083
  16.8370113  74.8795993  28.0504083  16.6600113  75.5125993  27.6214083
  17.1950113  75.3685993  31.0814083  17.2200113  74.6935993  30.5304083
  16.5490113  75.8645993  30.7694083  17.1040113  75.3415993  30.9544083
  27.0900113  73.0815993  29.4774083  26.4280113  73.4095993  29.9404083
  27.2770113  73.7155993  28.9084083  27.0200113  73.2235993  29.4614083
  23.7350113  68.9875993  32.9064083  23.8840113  68.1625993  32.6634083
  24.1140113  69.0425993  33.6904083  23.8130113  68.8735993  32.9864083
  25.2830113  71.0505993  22.9884083  25.7730113  71.7675993  22.9114083
  24.4930113  71.3115993  22.7254083  25.2390113  71.1945993  22.9384083
  14.9940113  76.7235993  36.6404083  14.9570113  77.2245993  35.9264083
  15.3250113  75.9715993  36.3454083  15.0370113  76.6855993  36.4914083
  21.8650113  72.5205993  28.7134083  22.3450113  73.2195993  28.9214083
  22.2380113  71.8735993  29.1644083  21.9910113  72.5285993  28.8104083
  24.0540113  75.6895993  20.9874083  24.0460113  76.4115993  20.4974083
  23.4150113  75.8245993  21.5644083  23.9590113  75.8165993  21.0004083
  18.6470113  68.0315993  20.6484083  18.7440113  67.9245993  21.5094083
  17.9390113  68.5375993  20.5834083  18.5570113  68.0905993  20.7664083
  29.3760113  67.7725993  36.0454083  28.7390113  67.3725993  35.6034083
  29.4020113  67.3415993  36.8034083  29.2860113  67.6505993  36.0914083
  15.7690113  76.3385993  21.8914083  16.0930113  75.5595993  21.6694083
  16.4150113  76.7065993  22.3464083  15.9120113  76.2775993  21.9254083
  12.7660113  67.9995993  22.8594083  12.8950113  67.2915993  22.3674083
  12.3990113  67.6815993  23.5844083  12.7310113  67.8475993  22.8944083
  22.4590113  75.6805993  23.3164083  22.5180113  76.3305993  23.8954083
  22.2700113  74.9845993  23.8074083  22.4400113  75.6735993  23.4744083
  16.9550113  70.1975993  19.8284083  16.4440113  70.2505993  19.1224083
  17.7390113  70.4375993  19.5324083  16.9950113  70.2405993  19.6804083
  18.7600113  72.5915993  26.7984083  19.6060113  72.4015993  26.8964083
  18.3900113  71.8145993  26.6604083  18.8300113  72.4485993  26.7924083
  13.5810113  73.9295993  23.4534083  14.0700113  73.6375993  24.1144083
  13.7100113  73.3365993  22.8264083  13.6720113  73.7985993  23.4584083
  28.6160113  76.9515993  30.3044083  28.6090113  76.1755993  30.7024083
  27.7750113  77.1855993  30.2974083  28.4910113  76.8715993  30.3624083
  18.1060113  75.3635993  18.9394083  17.4960113  74.9585993  19.4134083
  17.7200113  75.4815993  18.1664083  17.9590113  75.3205993  18.8954083
  19.5610113  73.8245993  21.6494083  19.8330113  74.6505993  21.7164083
  18.6980113  73.8995993  21.5534083  19.4740113  73.9575993  21.6444083
  27.5340113  70.9465993  36.2814083  27.0090113  71.4055993  36.8054083
  27.1730113  70.1515993  36.2754083  27.4030113  70.8965993  36.3574083
  13.0410113  69.7945993  28.1854083  13.0850113  70.1385993  27.3844083
  13.7960113  70.0315993  28.5524083  13.1590113  69.8805993  28.1214083
  26.0260113  74.5155993  36.3574083  26.0990113  74.6195993  37.2204083
  25.3920113  75.0735993  36.1364083  25.9430113  74.6135993  36.4524083
  28.2940113  74.8345993  34.7224083  28.6130113  75.6205993  34.9254083
  27.9240113  74.5645993  35.4654083  28.2870113  74.9105993  34.8624083
  28.0900113  73.0925993  25.9114083  27.3450113  72.7695993  26.2294083
  28.0920113  73.9185993  26.1914083  27.9800113  73.1665993  25.9994083
  30.9920113  75.3765993  37.4574083  30.9400113  75.0355993  36.6564083
  31.7290113  75.8435993  37.4354083  31.0930113  75.3955993  37.3354083
  27.0020113  69.4225993  33.3724083  27.7460113  69.8745993  33.3094083
  26.4360113  69.8925993  32.9034083  27.0290113  69.5595993  33.2944083
  22.1800113  76.7065993  30.4504083  22.6560113  77.0805993  31.0784083
  21.3570113  76.8405993  30.7094083  22.1290113  76.7815993  30.5814083
  18.8900113  72.3095993  33.1914083  19.0510113  71.5655993  33.6184083
  18.8450113  72.0605993  32.3564083  18.9070113  72.1625993  33.1314083
  28.2870113  67.4025993  31.0424083  28.0070113  68.2275993  30.9984083
  29.0030113  67.4555993  31.5384083  28.3520113  67.5325993  31.1094083
  20.6420113  68.1175993  33.0714083  21.3470113  68.4375993  32.6694083
  20.8830113  67.3105993  33.2984083  20.7810113  68.0455993  33.0454083
  29.7080113  73.6575993  19.8994083  30.0860113  74.3345993  19.4994083
  28.8660113  73.8815993  19.9304083  29.6390113  73.7905993  19.8444083
  17.1510113  73.1705993  29.1324083  17.5910113  73.0675993  28.3864083
  17.6960113  72.8575993  29.7374083  17.2960113  73.1095993  29.1114083
  25.1670113  72.2725993  34.7244083  24.5190113  72.7425993  35.0724083
  25.7320113  72.1835993  35.3834083  25.1550113  72.3285993  34.8734083
  24.8550113  73.8095993  31.0224083  25.1570113  74.2295993  31.7254083
  24.8910113  72.9695993  31.2544083  24.9050113  73.7475993  31.1604083
  27.4030113  73.2565993  23.2744083  27.6100113  73.0555993  24.0984083
  28.1590113  73.5245993  22.9324083  27.5450113  73.2665993  23.3454083
  20.6980113  68.1555993  29.1794083  19.8720113  68.0065993  29.4164083
  20.6580113  68.1905993  28.3084083  20.5700113  68.1385993  29.0854083
  28.4250113  69.3395993  24.7484083  27.7110113  68.8685993  24.9194083
  28.2630113  69.6805993  23.9624083  28.2960113  69.3205993  24.6574083
  28.8680113  77.2835993  23.1284083  29.3440113  76.5545993  23.0804083
  28.0470113  76.9975993  23.0524083  28.8170113  77.1335993  23.1094083
  13.2630113  68.5535993  35.2144083  13.1230113  69.3485993  34.8834083
  12.4770113  68.3105993  35.5034083  13.1260113  68.6355993  35.2084083
  16.3270113  71.2975993  22.4394083  16.4530113  70.9685993  21.6414083
  15.5150113  71.0485993  22.6384083  16.2260113  71.2125993  22.3514083
  31.0040113  74.4515993  34.8864083  30.1490113  74.3295993  35.0124083
  31.1570113  74.0565993  34.1234083  30.9000113  74.3745993  34.7924083
  25.5170113  75.1165993  33.4624083  25.2620113  74.3975993  33.8844083
  26.3380113  75.2325993  33.7324083  25.6010113  75.0275993  33.5644083
  23.4510113  76.3065993  36.6494083  23.7740113  76.9925993  36.2174083
  22.7470113  76.6295993  37.0514083  23.3940113  76.4555993  36.6444083
  16.3040113  73.3085993  32.8554083  16.6790113  73.9275993  32.3684083
  16.9780113  72.8345993  33.1404083  16.4590113  73.3305993  32.8254083
  14.0790113  71.7565993  32.1304083  14.1560113  71.5875993  31.2774083
  14.8250113  72.1625993  32.3274083  14.2000113  71.7915993  32.0334083
  29.6380113  74.3965993  22.5704083  29.7410113  74.3385993  21.7064083
  30.3790113  74.0645993  22.8884083  29.7630113  74.3395993  22.4894083
  16.6330113  69.1665993  34.5414083  16.5520113  68.3225993  34.7474083
  16.3190113  69.2105993  33.7284083  16.5750113  69.0485993  34.4514083
  28.7400113  74.5425993  31.9264083  28.7380113  73.6795993  32.0504083
  28.8070113  74.8665993  32.7334083  28.7500113  74.4625993  32.0634083
  13.4760113  76.9825993  32.3544083  13.7960113  77.2015993  31.5734083
  13.3760113  76.1175993  32.2994083  13.5080113  76.8875993  32.2314083
  14.9320113  72.9185993  18.9724083  14.2600113  72.9325993  19.5284083
  15.0270113  72.0705993  18.7884083  14.8470113  72.7955993  19.0274083
  24.6190113  69.3425993  35.7084083  24.7110113  70.0545993  36.2024083
  23.9820113  68.8975993  36.1054083  24.5380113  69.3815993  35.8404083
  23.6130113  69.5325993  26.5624083  22.9130113  70.0505993  26.5064083
  23.6510113  69.1525993  25.7784083  23.5150113  69.5535993  26.4384083
  27.2110113  70.0485993  29.3624083  28.0660113  70.1475993  29.5074083
  26.8420113  70.6015993  29.9274083  27.2830113  70.1455993  29.4674083
  18.2390113  76.2745993  33.7394083  17.8430113  77.0485993  33.8144083
  17.8330113  75.9015993  33.0634083  18.1210113  76.3335993  33.6504083
  27.5150113  75.3285993  27.8534083  28.1810113  75.8695993  28.0134083
  27.1700113  75.6395993  27.1144083  27.5620113  75.4545993  27.7684083
  18.6680113  69.2515993  31.1894083  17.8040113  69.3355993  31.2694083
  18.8880113  68.7375993  31.8584083  18.5730113  69.1885993  31.3004083
  30.6860113  67.8865993  32.5184083  30.6340113  67.8425993  33.3884083
  31.3730113  67.3835993  32.3284083  30.7800113  67.8065993  32.6184083
  22.7710113  69.9995993  29.5634083  22.0340113  69.5455993  29.6764083
  23.3420113  69.5975993  30.0864083  22.7460113  69.8725993  29.6574083
  20.2740113  74.3285993  34.7674083  19.9520113  73.7525993  34.1974083
  19.9150113  75.0835993  34.5214083  20.1740113  74.3545993  34.6474083
  21.0700113  67.5805993  19.3944083  21.1480113  67.8275993  18.5614083
  20.3270113  67.9575993  19.6524083  20.9720113  67.6725993  19.3094083
  15.8880113  69.3345993  31.8374083  15.5450113  68.5675993  31.6034083
  15.1930113  69.8585993  31.9014083  15.7350113  69.2985993  31.8124083
  24.9340113  68.1905993  28.8144083  25.6040113  68.7345993  28.9414083
  24.4310113  68.6145993  28.2414083  24.9590113  68.3335993  28.7484083
  24.2930113  73.9985993  26.3074083  24.8440113  73.3915993  26.6074083
  23.8680113  74.2615993  27.0224083  24.3120113  73.9475993  26.4564083
  14.5410113  72.6485993  25.7934083  14.1730113  72.9505993  26.5244083
  15.0750113  72.0195993  26.0774083  14.5650113  72.6005993  25.9434083
  26.2630113  75.8295993  22.8694083  26.3310113  74.9795993  23.0504083
  25.4400113  75.9155993  22.5914083  26.1510113  75.7165993  22.8554083
  20.1820113  76.7205993  21.8074083  20.2820113  76.8595993  20.9524083
  21.0000113  76.6605993  22.1034083  20.3170113  76.7315993  21.7244083
  30.1620113  71.7665993  36.7584083  29.9660113  72.4105993  37.3134083
  29.4400113  71.2765993  36.7504083  30.0270113  71.7895993  36.8394083
  30.0610113  72.7075993  29.7294083  29.2280113  72.9575993  29.6574083
  30.0050113  71.8675993  29.9584083  29.9300113  72.6205993  29.7524083
  19.3210113  69.6955993  34.9234083  19.5550113  69.1195993  34.3104083
  18.4790113  69.5145993  35.0644083  19.2310113  69.5835993  34.8534083
  23.7120113  67.8985993   5.2781673  23.4670113  68.3865993   4.5981673
  24.5750113  67.8255993   5.1781673  23.8030113  67.9595993   5.1631673
  23.5210113  74.8145993   9.9491673  22.9970113  75.4105993  10.3121673
  23.9180113  74.4465993  10.6331673  23.5020113  74.8485993  10.1041673
  26.1920113  75.8815993   6.6251673  26.2720113  75.8855993   5.7561673
  25.6080113  75.2495993   6.7741673  26.1170113  75.7885993   6.5191673
  20.1810113  68.9855993   4.4331673  20.1110113  69.6625993   3.8871673
  20.9220113  68.5975993   4.1841673  20.2800113  69.0285993   4.3151673
  14.7760113  76.2105993   5.8621673  14.3140113  75.8185993   5.2351673
  15.4760113  75.6975993   5.9541673  14.8110113  76.0775993   5.7831673
  19.2840113  71.8205993  11.2091673  19.9620113  71.8385993  10.6601673
  19.2390113  70.9845993  11.4541673  19.3770113  71.6995993  11.1641673
  16.7770113  74.3105993   5.8851673  17.5940113  74.1235993   6.1281673
  16.3000113  73.6965993   6.2811673  16.8270113  74.1925993   5.9801673
  23.0060113  73.8715993  16.0451673  22.1580113  73.7725993  15.8671673
  23.0350113  74.6165993  16.4991673  22.8850113  73.9675993  16.0861673
  17.3740113  69.4045993   5.1511673  17.0780113  69.9055993   4.5011673
  18.2410113  69.4825993   5.0941673  17.4580113  69.4905993   5.0471673
  27.5640113  66.8315993  15.1591673  27.4060113  67.6005993  14.7771673
  26.7920113  66.6115993  15.5031673  27.4260113  66.9125993  15.1541673
  20.3530113  68.5465993   7.3741673  20.4260113  69.4065993   7.5031673
  20.3150113  68.4715993   6.5061673  20.3580113  68.6625993   7.2651673
  13.2320113  73.9715993   8.8751673  12.9760113  74.8025993   8.8001673
  12.5680113  73.5885993   9.2921673  13.0960113  74.0375993   8.9261673
  16.2610113  68.7885993   9.3661673  15.7400113  68.1605993   9.0581673
  16.8520113  68.3515993   9.8371673  16.2720113  68.6305993   9.3901673
  19.5670113  70.9215993  18.6641673  19.6840113  70.4675993  17.9281673
  19.8550113  71.7195993  18.4611673  19.6270113  70.9725993  18.5251673
  30.4200113  71.4455993   5.9681673  30.0740113  72.1235993   6.3941673
  29.7840113  70.8475993   5.9841673  30.2750113  71.4575993   6.0331673
  15.3000113  70.5185993  17.6481673  14.5220113  70.1285993  17.5761673
  15.7910113  70.1065993  17.0571673  15.2570113  70.3995993  17.5501673
  21.9490113  68.1615993  16.8161673  22.1270113  67.3525993  16.5411673
  21.8060113  68.6025993  16.0771673  21.9540113  68.1075993  16.6661673
  22.5430113  73.0875993   5.5891673  22.8300113  72.8555993   4.7991673
  23.2750113  73.1665993   6.0581673  22.6930113  73.0645993   5.5421673
  30.0950113  69.7685993  11.3371673  30.8520113  69.8405993  10.9091673
  30.1580113  68.9955993  11.7361673  30.2160113  69.6655993  11.3321673
  12.6480113  71.0665993  15.2341673  12.6440113  71.6535993  15.8801673
  13.2420113  71.3785993  14.6771673  12.7350113  71.1995993  15.2471673
  13.5850113  70.6615993   4.1491673  13.4710113  69.7975993   4.1801673
  13.1100113  70.9555993   4.8191673  13.4980113  70.5775993   4.2521673
  22.8890113  71.8695993   2.8941673  22.3810113  71.2075993   2.6401673
  22.9410113  72.3735993   2.1841673  22.8220113  71.8465993   2.7521673
  22.8890113  68.8105993   2.7851673  22.4340113  68.4085993   2.1591673
  23.6620113  68.9655993   2.4101673  22.9360113  68.7745993   2.6371673
  21.4870113  71.1775993   7.3071673  21.5610113  71.7455993   6.6491673
  21.6080113  71.6695993   8.0171673  21.5150113  71.3345993   7.3151673
  16.0950113  67.0005993   5.6551673  16.6310113  67.6885993   5.6451673
  16.0980113  66.7265993   4.8271673  16.1740113  67.0615993   5.5311673
  25.2790113  71.3475993  13.1951673  25.1840113  71.6665993  14.0011673
  24.6860113  70.7085993  13.1571673  25.1770113  71.2995993  13.3091673
  26.5350113  67.2915993   6.0311673  26.5840113  66.9735993   6.8421673
  26.8580113  66.6475993   5.5381673  26.5900113  67.1495993   6.0781673
  28.9990113  71.5275993  14.3391673  29.7710113  71.3025993  14.6761673
  28.5240113  71.7445993  15.0391673  29.0430113  71.5265993  14.4921673
  16.5430113  70.8105993   7.3091673  16.8150113  70.3805993   6.6011673
  16.3670113  70.1745993   7.8801673  16.5570113  70.6535993   7.2891673
  14.6840113  71.9125993  10.3911673  15.5270113  72.1325993  10.3481673
  14.2950113  72.4855993   9.8601673  14.7510113  72.0295993  10.3061673
  20.5380113  73.5975993  18.5091673  20.0540113  74.1745993  18.9511673
  20.5100113  73.8925993  17.6881673  20.4620113  73.7265993  18.4531673
  31.6360113  74.2815993  13.1211673  31.8510113  73.4815993  12.8451673
  30.7860113  74.3415993  12.9321673  31.5420113  74.1725993  13.0521673
  12.9570113  76.5715993   3.5161673  12.7720113  75.7325993   3.6681673
  13.6160113  76.5355993   2.9461673  13.0270113  76.4425993   3.4541673
  29.3150113  69.4615993   2.8441673  30.0610113  69.0545993   3.0431673
  29.5780113  70.1765993   2.4191673  29.4640113  69.5075993   2.8111673
  25.7690113  71.7495993   7.9171673  26.1130113  71.9015993   8.7041673
  25.3160113  71.0115993   8.0301673  25.7530113  71.6625993   8.0501673
  16.1130113  74.4045993  16.8681673  15.5770113  73.8985993  17.3361673
  16.1330113  74.0145993  16.0881673  16.0360113  74.2715993  16.8221673
  16.7650113  75.6315993   8.6071673  15.9840113  75.5725993   8.2241673
  16.8370113  74.8795993   9.0441673  16.6600113  75.5125993   8.6151673
  17.1950113  75.3685993  12.0751673  17.2200113  74.6935993  11.5241673
  16.5490113  75.8645993  11.7631673  17.1040113  75.3415993  11.9481673
  27.0900113  73.0815993  10.4711673  26.4280113  73.4095993  10.9341673
  27.2770113  73.7155993   9.9021673  27.0200113  73.2235993  10.4551673
  23.7350113  68.9875993  13.9001673  23.8840113  68.1625993  13.6571673
  24.1140113  69.0425993  14.6841673  23.8130113  68.8735993  13.9801673
  25.2830113  71.0505993   3.9821673  25.7730113  71.7675993   3.9051673
  24.4930113  71.3115993   3.7191673  25.2390113  71.1945993   3.9321673
  14.9940113  76.7235993  17.6341673  14.9570113  77.2245993  16.9201673
  15.3250113  75.9715993  17.3391673  15.0370113  76.6855993  17.4851673
  21.8650113  72.5205993   9.7071673  22.3450113  73.2195993   9.9151673
  22.2380113  71.8735993  10.1581673  21.9910113  72.5285993   9.8041673
  29.3760113  67.7725993  17.0391673  28.7390113  67.3725993  16.5971673
  29.4020113  67.3415993  17.7971673  29.2860113  67.6505993  17.0851673
  15.7690113  76.3385993   2.8851673  16.0930113  75.5595993   2.6631673
  16.4150113  76.7065993   3.3401673  15.9120113  76.2775993   2.9191673
  12.7660113  67.9995993   3.8531673  12.8950113  67.2915993   3.3611673
  12.3990113  67.6815993   4.5781673  12.7310113  67.8475993   3.8881673
  22.4590113  75.6805993   4.3101673  22.5180113  76.3305993   4.8891673
  22.2700113  74.9845993   4.8011673  22.4400113  75.6735993   4.4681673
  18.7600113  72.5915993   7.7921673  19.6060113  72.4015993   7.8901673
  18.3900113  71.8145993   7.6541673  18.8300113  72.4485993   7.7861673
  13.5810113  73.9295993   4.4471673  14.0700113  73.6375993   5.1081673
  13.7100113  73.3365993   3.8201673  13.6720113  73.7985993   4.4521673
  28.6160113  76.9515993  11.2981673  28.6090113  76.1755993  11.6961673
  27.7750113  77.1855993  11.2911673  28.4910113  76.8715993  11.3561673
  19.5610113  73.8245993   2.6431673  19.8330113  74.6505993   2.7101673
  18.6980113  73.8995993   2.5471673  19.4740113  73.9575993   2.6381673
  27.5340113  70.9465993  17.2751673  27.0090113  71.4055993  17.7991673
  27.1730113  70.1515993  17.2691673  27.4030113  70.8965993  17.3511673
  13.0410113  69.7945993   9.1791673  13.0850113  70.1385993   8.3781673
  13.7960113  70.0315993   9.5461673  13.1590113  69.8805993   9.1151673
  26.0260113  74.5155993  17.3511673  26.0990113  74.6195993  18.2141673
  25.3920113  75.0735993  17.1301673  25.9430113  74.6135993  17.4461673
  28.2940113  74.8345993  15.7161673  28.6130113  75.6205993  15.9191673
  27.9240113  74.5645993  16.4591673  28.2870113  74.9105993  15.8561673
  28.0900113  73.0925993   6.9051673  27.3450113  72.7695993   7.2231673
  28.0920113  73.9185993   7.1851673  27.9800113  73.1665993   6.9931673
  30.9920113  75.3765993  18.4511673  30.9400113  75.0355993  17.6501673
  31.7290113  75.8435993  18.4291673  31.0930113  75.3955993  18.3291673
  27.0020113  69.4225993  14.3661673  27.7460113  69.8745993  14.3031673
  26.4360113  69.8925993  13.8971673  27.0290113  69.5595993  14.2881673
  22.1800113  76.7065993  11.4441673  22.6560113  77.0805993  12.0721673
  21.3570113  76.8405993  11.7031673  22.1290113  76.7815993  11.5751673
  18.8900113  72.3095993  14.1851673  19.0510113  71.5655993  14.6121673
  18.8450113  72.0605993  13.3501673  18.9070113  72.1625993  14.1251673
  28.2870113  67.4025993  12.0361673  28.0070113  68.2275993  11.9921673
  29.0030113  67.4555993  12.5321673  28.3520113  67.5325993  12.1031673
  20.6420113  68.1175993  14.0651673  21.3470113  68.4375993  13.6631673
  20.8830113  67.3105993  14.2921673  20.7810113  68.0455993  14.0391673
  17.1510113  73.1705993  10.1261673  17.5910113  73.0675993   9.3801673
  17.6960113  72.8575993  10.7311673  17.2960113  73.1095993  10.1051673
  25.1670113  72.2725993  15.7181673  24.5190113  72.7425993  16.0661673
  25.7320113  72.1835993  16.3771673  25.1550113  72.3285993  15.8671673
  24.8550113  73.8095993  12.0161673  25.1570113  74.2295993  12.7191673
  24.8910113  72.9695993  12.2481673  24.9050113  73.7475993  12.1541673
  27.4030113  73.2565993   4.2681673  27.6100113  73.0555993   5.0921673
  28.1590113  73.5245993   3.9261673  27.5450113  73.2665993   4.3391673
  20.6980113  68.1555993  10.1731673  19.8720113  68.0065993  10.4101673
  20.6580113  68.1905993   9.3021673  20.5700113  68.1385993  10.0791673
  28.4250113  69.3395993   5.7421673  27.7110113  68.8685993   5.9131673
  28.2630113  69.6805993   4.9561673  28.2960113  69.3205993   5.6511673
  28.8680113  77.2835993   4.1221673  29.3440113  76.5545993   4.0741673
  28.0470113  76.9975993   4.0461673  28.8170113  77.1335993   4.1031673
  13.2630113  68.5535993  16.2081673  13.1230113  69.3485993  15.8771673
  12.4770113  68.3105993  16.4971673  13.1260113  68.6355993  16.2021673
  16.3270113  71.2975993   3.4331673  16.4530113  70.9685993   2.6351673
  15.5150113  71.0485993   3.6321673  16.2260113  71.2125993   3.3451673
  31.0040113  74.4515993  15.8801673  30.1490113  74.3295993  16.0061673
  31.1570113  74.0565993  15.1171673  30.9000113  74.3745993  15.7861673
  25.5170113  75.1165993  14.4561673  25.2620113  74.3975993  14.8781673
  26.3380113  75.2325993  14.7261673  25.6010113  75.0275993  14.5581673
  23.4510113  76.3065993  17.6431673  23.7740113  76.9925993  17.2111673
  22.7470113  76.6295993  18.0451673  23.3940113  76.4555993  17.6381673
  16.3040113  73.3085993  13.8491673  16.6790113  73.9275993  13.3621673
  16.9780113  72.8345993  14.1341673  16.4590113  73.3305993  13.8191673
  14.0790113  71.7565993  13.1241673  14.1560113  71.5875993  12.2711673
  14.8250113  72.1625993  13.3211673  14.2000113  71.7915993  13.0271673
  29.6380113  74.3965993   3.5641673  29.7410113  74.3385993   2.7001673
  30.3790113  74.0645993   3.8821673  29.7630113  74.3395993   3.4831673
  16.6330113  69.1665993  15.5351673  16.5520113  68.3225993  15.7411673
  16.3190113  69.2105993  14.7221673  16.5750113  69.0485993  15.4451673
  28.7400113  74.5425993  12.9201673  28.7380113  73.6795993  13.0441673
  28.8070113  74.8665993  13.7271673  28.7500113  74.4625993  13.0571673
  13.4760113  76.9825993  13.3481673  13.7960113  77.2015993  12.5671673
  13.3760113  76.1175993  13.2931673  13.5080113  76.8875993  13.2251673
  24.6190113  69.3425993  16.7021673  24.7110113  70.0545993  17.1961673
  23.9820113  68.8975993  17.0991673  24.5380113  69.3815993  16.8341673
  23.6130113  69.5325993   7.5561673  22.9130113  70.0505993   7.5001673
  23.6510113  69.1525993   6.7721673  23.5150113  69.5535993   7.4321673
  27.2110113  70.0485993  10.3561673  28.0660113  70.1475993  10.5011673
  26.8420113  70.6015993  10.9211673  27.2830113  70.1455993  10.4611673
  18.2390113  76.2745993  14.7331673  17.8430113  77.0485993  14.8081673
  17.8330113  75.9015993  14.0571673  18.1210113  76.3335993  14.6441673
  27.5150113  75.3285993   8.8471673  28.1810113  75.8695993   9.0071673
  27.1700113  75.6395993   8.1081673  27.5620113  75.4545993   8.7621673
  18.6680113  69.2515993  12.1831673  17.8040113  69.3355993  12.2631673
  18.8880113  68.7375993  12.8521673  18.5730113  69.1885993  12.2941673
  30.6860113  67.8865993  13.5121673  30.6340113  67.8425993  14.3821673
  31.3730113  67.3835993  13.3221673  30.7800113  67.8065993  13.6121673
  22.7710113  69.9995993  10.5571673  22.0340113  69.5455993  10.6701673
  23.3420113  69.5975993  11.0801673  22.7460113  69.8725993  10.6511673
  20.2740113  74.3285993  15.7611673  19.9520113  73.7525993  15.1911673
  19.9150113  75.0835993  15.5151673  20.1740113  74.3545993  15.6411673
  15.8880113  69.3345993  12.8311673  15.5450113  68.5675993  12.5971673
  15.1930113  69.8585993  12.8951673  15.7350113  69.2985993  12.8061673
  24.9340113  68.1905993   9.8081673  25.6040113  68.7345993   9.9351673
  24.4310113  68.6145993   9.2351673  24.9590113  68.3335993   9.7421673
  24.2930113  73.9985993   7.3011673  24.8440113  73.3915993   7.6011673
  23.8680113  74.2615993   8.0161673  24.3120113  73.9475993   7.4501673
  14.5410113  72.6485993   6.7871673  14.1730113  72.9505993   7.5181673
  15.0750113  72.0195993   7.0711673  14.5650113  72.6005993   6.9371673
  26.2630113  75.8295993   3.8631673  26.3310113  74.9795993   4.0441673
  25.4400113  75.9155993   3.5851673  26.1510113  75.7165993   3.8491673
  20.1820113  76.7205993   2.8011673  20.2820113  76.8595993   1.9461673
  21.0000113  76.6605993   3.0971673  20.3170113  76.7315993   2.7181673
  30.1620113  71.7665993  17.7521673  29.9660113  72.4105993  18.3071673
  29.4400113  71.2765993  17.7441673  30.0270113  71.7895993  17.8331673
  30.0610113  72.7075993  10.7231673  29.2280113  72.9575993  10.6511673
  30.0050113  71.8675993  10.9521673  29.9300113  72.6205993  10.7461673
  19.3210113  69.6955993  15.9171673  19.5550113  69.1195993  15.3041673
  18.4790113  69.5145993  16.0581673  19.2310113  69.5835993  15.8471673
  23.7120113  49.4204913  81.3031313  23.4670113  49.9084913  80.6231313
  24.5750113  49.3474913  81.2031313  23.8030113  49.4814913  81.1881313
  23.5210113  56.3364913  85.9741313  22.9970113  56.9324913  86.3371313
  23.9180113  55.9684913  86.6581313  23.5020113  56.3704913  86.1291313
  13.3900113  60.4764913  81.4301313  12.9490113  60.5944913  82.1731313
  13.1070113  59.7014913  81.1451313  13.2830113  60.3794913  81.4981313
  29.6650113  63.7774913  78.9451313  30.3660113  63.2584913  78.9411313
  29.0780113  63.3324913  78.4761313  29.6820113  63.6344913  78.8751313
  13.1330113  54.2684913  77.9371313  12.3550113  54.4304913  77.5771313
  13.1720113  53.3974913  77.9591313  13.0240113  54.1634913  77.8871313
  16.2720113  59.5314913  76.6091313  15.8800113  59.1604913  75.9231313
  16.1920113  58.9334913  77.2381313  16.2020113  59.3884913  76.6001313
  26.1920113  57.4034913  82.6501313  26.2720113  57.4074913  81.7811313
  25.6080113  56.7714913  82.7991313  26.1170113  57.3104913  82.5441313
  15.8990113  61.1724913  80.5091313  16.5070113  61.0024913  81.1121313
  15.1480113  61.0324913  80.9301313  15.8780113  61.1264913  80.6601313
  20.1810113  50.5074913  80.4581313  20.1110113  51.1844913  79.9121313
  20.9220113  50.1194913  80.2091313  20.2800113  50.5504913  80.3401313
  14.7900113  64.2634913  76.5861313  15.2570113  64.3474913  75.8541313
  15.2450113  63.6854913  77.0551313  14.9260113  64.1904913  76.5471313
  13.3300113  63.2114913  87.6851313  13.4590113  62.9314913  88.5011313
  12.7200113  62.6704913  87.3761313  13.2590113  63.0904913  87.7601313
  14.7760113  57.7324913  81.8871313  14.3140113  57.3404913  81.2601313
  15.4760113  57.2194913  81.9791313  14.8110113  57.5994913  81.8081313
  19.2840113  53.3424913  87.2341313  19.9620113  53.3604913  86.6851313
  19.2390113  52.5064913  87.4791313  19.3770113  53.2214913  87.1891313
  19.8860113  63.9284913  90.0151313  20.0240113  64.6884913  89.6081313
  20.6770113  63.5634913  90.0421313  20.0230113  63.9874913  89.9591313
  16.7770113  55.8324913  81.9101313  17.5940113  55.6454913  82.1531313
  16.3000113  55.2184913  82.3061313  16.8270113  55.7144913  82.0051313
  20.9810113  61.8134913  84.5201313  21.3290113  61.0144913  84.5501313
  21.6460113  62.3174913  84.2651313  21.1310113  61.7694913  84.4871313
  21.0380113  61.2624913  80.7311313  21.3690113  60.6184913  81.2171313
  21.2780113  61.0514913  79.9201313  21.1220113  61.1364913  80.6831313
  23.0060113  55.3934913  92.0701313  22.1580113  55.2944913  91.8921313
  23.0350113  56.1384913  92.5241313  22.8850113  55.4894913  92.1111313
  17.3740113  50.9264913  81.1761313  17.0780113  51.4274913  80.5261313
  18.2410113  51.0044913  81.1191313  17.4580113  51.0124913  81.0721313
  27.5640113  48.3534913  91.1841313  27.4060113  49.1224913  90.8021313
  26.7920113  48.1334913  91.5281313  27.4260113  48.4344913  91.1791313
  20.3530113  50.0684913  83.3991313  20.4260113  50.9284913  83.5281313
  20.3150113  49.9934913  82.5311313  20.3580113  50.1844913  83.2901313
  25.0260113  52.9944913  75.6981313  24.5760113  53.6754913  76.0051313
  25.1400113  52.4904913  76.4011313  24.9770113  53.0204913  75.8471313
  13.2320113  55.4934913  84.9001313  12.9760113  56.3244913  84.8251313
  12.5680113  55.1104913  85.3171313  13.0960113  55.5594913  84.9511313
  13.1420113  65.2034913  82.8001313  12.5500113  65.7614913  82.4871313
  13.5680113  64.9344913  82.0881313  13.1180113  65.2454913  82.6491313
  18.9820113  63.0474913  80.2801313  18.4030113  62.7724913  80.8721313
  19.6060113  62.4384913  80.3051313  18.9890113  62.9174913  80.3711313
  25.1250113  65.3354913  77.8021313  25.8520113  65.8074913  77.9041313
  25.3540113  64.5414913  78.0821313  25.2670113  65.2884913  77.8591313
  23.2930113  65.7274913  79.7921313  23.5070113  66.2544913  80.4541313
  24.0600113  65.5534913  79.4131313  23.4380113  65.7794913  79.8341313
  16.2610113  50.3104913  85.3911313  15.7400113  49.6824913  85.0831313
  16.8520113  49.8734913  85.8621313  16.2720113  50.1524913  85.4151313
  14.6870113  63.8734913  80.7311313  15.3430113  63.2984913  80.7461313
  15.0760113  64.6224913  80.5101313  14.8420113  63.8984913  80.7011313
  30.4200113  52.9674913  81.9931313  30.0740113  53.6454913  82.4191313
  29.7840113  52.3694913  82.0091313  30.2750113  52.9794913  82.0581313
  25.7320113  65.7374913  88.0971313  26.4760113  66.1934913  88.0871313
  25.6110113  65.5234913  87.2601313  25.8240113  65.7734913  87.9721313
  15.5050113  62.3604913  84.2311313  15.9280113  62.0044913  83.5571313
  15.8290113  61.9384913  84.9231313  15.6150113  62.2454913  84.2341313
  18.7360113  65.2124913  83.5271313  19.5800113  65.3164913  83.3321313
  18.4390113  66.0304913  83.5951313  18.8170113  65.3484913  83.5081313
  22.5430113  54.6094913  81.6141313  22.8300113  54.3774913  80.8241313
  23.2750113  54.6884913  82.0831313  22.6930113  54.5864913  81.5671313
  23.2650113  54.9484913  76.7351313  23.5460113  55.7364913  76.9841313
  22.4890113  55.1134913  76.3721313  23.1920113  55.0894913  76.7181313
  27.3060113  66.9224913  78.2021313  27.9710113  66.7744913  77.6571313
  27.6660113  66.8394913  78.9921313  27.4580113  66.8884913  78.2381313
  17.7340113  66.4314913  89.2671313  18.0260113  66.3644913  90.0871313
  17.1080113  65.8264913  89.2221313  17.6850113  66.3324913  89.3821313
  30.0950113  51.2904913  87.3621313  30.8520113  51.3624913  86.9341313
  30.1580113  50.5174913  87.7611313  30.2160113  51.1874913  87.3571313
  12.6480113  52.5884913  91.2591313  12.6440113  53.1754913  91.9051313
  13.2420113  52.9004913  90.7021313  12.7350113  52.7214913  91.2721313
  24.9860113  62.9224913  91.8011313  24.9520113  63.3044913  92.5851313
  25.8400113  62.8804913  91.6301313  25.1070113  62.9724913  91.8921313
  22.1240113  63.1194913  76.5511313  21.9430113  63.6644913  77.2081313
  22.8900113  63.4094913  76.2501313  22.2100113  63.2434913  76.6041313
  25.6310113  51.0154913  77.6051313  26.1710113  50.3334913  77.6811313
  25.6930113  51.4134913  78.3791313  25.7200113  50.9734913  77.7311313
  13.5850113  52.1834913  80.1741313  13.4710113  51.3194913  80.2051313
  13.1100113  52.4774913  80.8441313  13.4980113  52.0994913  80.2771313
  15.7270113  64.5934913  88.3891313  15.0290113  64.0854913  88.5151313
  15.9870113  64.3884913  87.5811313  15.6620113  64.4884913  88.2881313
  22.8890113  53.3914913  78.9191313  22.3810113  52.7294913  78.6651313
  22.9410113  53.8954913  78.2091313  22.8220113  53.3684913  78.7771313
  23.4380113  66.0864913  89.2991313  24.2060113  66.0064913  88.8931313
  22.8550113  65.9654913  88.6611313  23.4650113  66.0564913  89.1451313
  22.8890113  50.3324913  78.8101313  22.4340113  49.9304913  78.1841313
  23.6620113  50.4874913  78.4351313  22.9360113  50.2964913  78.6621313
  29.7150113  66.6894913  82.2001313  29.2600113  67.4064913  82.4011313
  29.1010113  66.1184913  81.9581313  29.5570113  66.7114913  82.1941313
  21.4870113  52.6994913  83.3321313  21.5610113  53.2674913  82.6741313
  21.6080113  53.1914913  84.0421313  21.5150113  52.8564913  83.3401313
  26.7120113  62.5344913  81.7441313  27.4130113  62.0524913  81.9331313
  26.0520113  61.9654913  81.7891313  26.7180113  62.3794913  81.7781313
  17.0880113  63.4444913  90.9561313  17.9290113  63.5074913  90.7341313
  17.0510113  63.8414913  91.7321313  17.2070113  63.5124913  91.0381313
  16.0950113  48.5224913  81.6801313  16.6310113  49.2104913  81.6701313
  16.0980113  48.2484913  80.8521313  16.1740113  48.5834913  81.5561313
  19.0510113  58.9554913  85.7051313  19.2230113  58.7454913  86.5341313
  18.3960113  58.4214913  85.4891313  18.9800113  58.8454913  85.7961313
  25.2790113  52.8694913  89.2201313  25.1840113  53.1884913  90.0261313
  24.6860113  52.2304913  89.1821313  25.1770113  52.8214913  89.3341313
  19.8010113  58.8934913  88.2951313  19.8540113  59.7404913  88.4971313
  19.5160113  58.5234913  89.0321313  19.7670113  58.9634913  88.4331313
  25.9780113  59.5884913  87.4251313  25.4640113  59.1764913  87.9961313
  25.8520113  60.4324913  87.6061313  25.8840113  59.6524913  87.5361313
  26.5350113  48.8134913  82.0561313  26.5840113  48.4954913  82.8671313
  26.8580113  48.1694913  81.5631313  26.5900113  48.6714913  82.1031313
  28.9990113  53.0494913  90.3641313  29.7710113  52.8244913  90.7011313
  28.5240113  53.2664913  91.0641313  29.0430113  53.0484913  90.5171313
  16.5430113  52.3324913  83.3341313  16.8150113  51.9024913  82.6261313
  16.3670113  51.6964913  83.9051313  16.5570113  52.1754913  83.3141313
  29.2310113  60.0274913  77.5521313  29.3500113  59.7404913  78.3671313
  30.0380113  60.0484913  77.2221313  29.3670113  59.9884913  77.6241313
  16.3670113  59.7594913  82.8831313  17.2180113  59.6794913  82.7101313
  16.0100113  59.0774913  82.4711313  16.4400113  59.6464913  82.7961313
  15.1340113  66.4844913  84.1201313  14.4610113  65.9864913  83.8751313
  15.5370113  66.6694913  83.3691313  15.0940113  66.4384913  83.9731313
  14.6840113  53.4344913  86.4161313  15.5270113  53.6544913  86.3731313
  14.2950113  54.0074913  85.8851313  14.7510113  53.5514913  86.3311313
  31.4650113  64.5364913  91.8061313  30.7830113  64.8464913  91.3591313
  31.0960113  64.0784913  92.4511313  31.3090113  64.5144913  91.8351313
  27.1260113  56.5644913  77.1371313  26.9060113  57.2954913  76.7151313
  26.6780113  56.6154913  77.8841313  27.0270113  56.6794913  77.1851313
  18.7350113  59.7664913  81.1181313  19.4480113  60.2614913  81.2081313
  18.9570113  59.1994913  80.4921313  18.8730113  59.7554913  81.0391313
  31.3130113  51.4254913  76.5901313  30.6510113  50.8574913  76.6131313
  31.1200113  51.9374913  75.9101313  31.1870113  51.4174913  76.4931313
  12.8910113  61.4094913  84.4381313  12.2240113  61.8974913  84.7141313
  13.5710113  61.9544913  84.4671313  12.8930113  61.5614913  84.4831313
  31.6360113  55.8034913  89.1461313  31.8510113  55.0034913  88.8701313
  30.7860113  55.8634913  88.9571313  31.5420113  55.6944913  89.0771313
  12.9570113  58.0934913  79.5411313  12.7720113  57.2544913  79.6931313
  13.6160113  58.0574913  78.9711313  13.0270113  57.9644913  79.4791313
  29.3150113  50.9834913  78.8691313  30.0610113  50.5764913  79.0681313
  29.5780113  51.6984913  78.4441313  29.4640113  51.0294913  78.8361313
  23.2580113  63.4694913  83.4451313  22.7350113  64.1034913  83.1521313
  23.5680113  63.1054913  82.7161313  23.2260113  63.5094913  83.2941313
  13.1290113  62.2574913  79.1161313  13.6810113  62.8264913  79.4801313
  12.8970113  61.7424913  79.7811313  13.1760113  62.2654913  79.2681313
  17.3330113  61.2574913  86.2051313  17.8000113  61.5464913  86.8831313
  17.9050113  60.7794913  85.7511313  17.4870113  61.2294913  86.2381313
  25.7690113  53.2714913  83.9421313  26.1130113  53.4234913  84.7291313
  25.3160113  52.5334913  84.0551313  25.7530113  53.1844913  84.0751313
  12.9590113  60.7064913  76.7441313  13.7150113  60.2744913  76.8021313
  12.9740113  61.2384913  77.4351313  13.0730113  60.7214913  76.8551313
  13.8990113  58.9274913  84.7491313  14.3300113  58.7984913  84.0021313
  13.6940113  59.7754913  84.7231313  13.9320113  59.0334913  84.6351313
  20.2450113  52.4914913  78.3991313  20.2430113  52.3744913  77.5341313
  20.0640113  53.3394913  78.4911313  20.2180113  52.5994913  78.2851313
  29.2990113  64.9184913  89.8961313  28.6280113  65.4324913  90.1141313
  29.3620113  65.0184913  89.0321313  29.2090113  65.0094913  89.8011313
  17.9830113  62.4434913  83.0311313  18.1090113  63.2864913  83.2181313
  18.6510113  62.0444913  83.4271313  18.1010113  62.5094913  83.1171313
  16.5980113  55.3234913  78.0331313  16.4700113  54.8754913  78.7711313
  16.0160113  54.9814913  77.4811313  16.4930113  55.2064913  78.0611313
  16.7650113  57.1534913  84.6321313  15.9840113  57.0944913  84.2491313
  16.8370113  56.4014913  85.0691313  16.6600113  57.0344913  84.6401313
  17.1950113  56.8904913  88.1001313  17.2200113  56.2154913  87.5491313
  16.5490113  57.3864913  87.7881313  17.1040113  56.8634913  87.9731313
  27.0900113  54.6034913  86.4961313  26.4280113  54.9314913  86.9591313
  27.2770113  55.2374913  85.9271313  27.0200113  54.7454913  86.4801313
  21.2950113  65.6674913  87.4921313  21.0180113  65.0264913  86.9691313
  21.0870113  66.3934913  87.0541313  21.2240113  65.6804913  87.3501313
  23.7350113  50.5094913  89.9251313  23.8840113  49.6844913  89.6821313
  24.1140113  50.5644913  90.7091313  23.8130113  50.3954913  90.0051313
  25.2830113  52.5724913  80.0071313  25.7730113  53.2894913  79.9301313
  24.4930113  52.8334913  79.7441313  25.2390113  52.7164913  79.9571313
  26.5970113  60.4504913  91.9171313  27.0810113  61.1684913  92.0151313
  26.9910113  60.0234913  91.2661313  26.7270113  60.4934913  91.8351313
  21.8650113  54.0424913  85.7321313  22.3450113  54.7414913  85.9401313
  22.2380113  53.3954913  86.1831313  21.9910113  54.0504913  85.8291313
  24.0540113  57.2114913  78.0061313  24.0460113  57.9334913  77.5161313
  23.4150113  57.3464913  78.5831313  23.9590113  57.3384913  78.0191313
  29.0260113  61.0814913  81.9871313  29.3820113  60.7314913  82.7021313
  29.0180113  60.4204913  81.4171313  29.0780113  60.9314913  82.0081313
  25.0710113  64.1474913  85.8311313  24.4680113  63.8514913  85.2741313
  25.6160113  64.5994913  85.3221313  25.0620113  64.1704913  85.6731313
  25.0840113  60.9984913  85.2311313  24.2870113  61.2224913  85.5051313
  25.3420113  60.4044913  85.8161313  25.0040113  60.9434913  85.3581313
  18.9760113  65.8104913  79.6791313  18.8290113  65.0344913  80.0501313
  19.6650113  65.6634913  79.1641313  19.0560113  65.6734913  79.6581313
  18.6470113  49.5534913  77.6671313  18.7440113  49.4464913  78.5281313
  17.9390113  50.0594913  77.6021313  18.5570113  49.6124913  77.7851313
  21.2680113  65.3264913  78.0811313  21.8900113  65.4894913  78.6711313
  21.3040113  66.0174913  77.5491313  21.3650113  65.4524913  78.0901313
  28.3440113  58.9964913  90.0771313  28.3990113  59.1214913  89.2151313
  29.0970113  59.3164913  90.3791313  28.4630113  59.0614913  89.9941313
  15.7690113  57.8604913  78.9101313  16.0930113  57.0814913  78.6881313
  16.4150113  58.2284913  79.3651313  15.9120113  57.7994913  78.9441313
  24.0750113  58.8024913  89.6771313  23.9200113  59.4124913  90.2811313
  24.6090113  58.2444913  90.0831313  24.1310113  58.8104913  89.8261313
  12.7660113  49.5214913  79.8781313  12.8950113  48.8134913  79.3861313
  12.3990113  49.2034913  80.6031313  12.7310113  49.3694913  79.9131313
  22.4590113  57.2024913  80.3351313  22.5180113  57.8524913  80.9141313
  22.2700113  56.5064913  80.8261313  22.4400113  57.1954913  80.4931313
  27.6850113  61.5314913  86.2041313  27.2060113  61.8294913  85.5381313
  27.3290113  60.7554913  86.3821313  27.5620113  61.4604913  86.1321313
  16.9550113  51.7194913  76.8471313  16.4440113  51.7724913  76.1411313
  17.7390113  51.9594913  76.5511313  16.9950113  51.7624913  76.6991313
  21.6820113  59.2494913  84.7661313  20.8350113  59.0554913  84.8471313
  22.0060113  59.0844913  85.5591313  21.6040113  59.1964913  84.8951313
  18.4340113  65.9794913  75.6521313  18.8730113  65.2824913  75.9401313
  18.6410113  66.6034913  76.2251313  18.5300113  65.9684913  75.7791313
  15.5300113  58.9424913  87.0821313  16.2520113  59.4304913  87.0451313
  15.2600113  58.9124913  86.2531313  15.5970113  59.0104913  86.9541313
  18.7600113  54.1134913  83.8171313  19.6060113  53.9234913  83.9151313
  18.3900113  53.3364913  83.6791313  18.8300113  53.9704913  83.8111313
  31.3770113  65.6974913  78.1441313  32.0710113  65.2304913  77.8961313
  30.8380113  65.0994913  78.4811313  31.4000113  65.5394913  78.1571313
  13.5810113  55.4514913  80.4721313  14.0700113  55.1594913  81.1331313
  13.7100113  54.8584913  79.8451313  13.6720113  55.3204913  80.4771313
  28.6160113  58.4734913  87.3231313  28.6090113  57.6974913  87.7211313
  27.7750113  58.7074913  87.3161313  28.4910113  58.3934913  87.3811313
  18.1060113  56.8854913  75.9581313  17.4960113  56.4804913  76.4321313
  17.7200113  57.0034913  75.1851313  17.9590113  56.8424913  75.9141313
  14.9250113  59.9944913  91.3601313  14.5040113  59.4764913  90.7991313
  14.5730113  60.7804913  91.2171313  14.8110113  60.0344913  91.2561313
  29.8720113  58.5444913  84.7601313  29.5860113  58.9454913  85.4801313
  30.7320113  58.4824913  84.8871313  29.9570113  58.5944913  84.8851313
  19.5610113  55.3464913  78.6681313  19.8330113  56.1724913  78.7351313
  18.6980113  55.4214913  78.5721313  19.4740113  55.4794913  78.6631313
  13.0410113  51.3164913  85.2041313  13.0850113  51.6604913  84.4031313
  13.7960113  51.5534913  85.5711313  13.1590113  51.4024913  85.1401313
  31.0030113  64.1774913  85.2891313  31.2930113  64.4344913  84.5081313
  31.6980113  64.2734913  85.8081313  31.1490113  64.2294913  85.2501313
  28.2940113  56.3564913  91.7411313  28.6130113  57.1424913  91.9441313
  27.9240113  56.0864913  92.4841313  28.2870113  56.4324913  91.8811313
  27.6080113  62.7804913  77.2711313  27.9420113  61.9744913  77.3061313
  26.8530113  62.7084913  77.7011313  27.5460113  62.6504913  77.3401313
  28.0900113  54.6144913  82.9301313  27.3450113  54.2914913  83.2481313
  28.0920113  55.4404913  83.2101313  27.9800113  54.6884913  83.0181313
  30.5300113  60.5744913  90.6821313  31.1580113  60.0254913  90.4261313
  30.4690113  61.1394913  90.0201313  30.6140113  60.5774913  90.5461313
  24.9820113  60.6554913  76.6741313  25.6660113  60.1414913  76.5051313
  24.5650113  60.7014913  75.9091313  25.0210113  60.5864913  76.5361313
  19.6640113  61.8054913  87.9781313  19.3660113  62.3974913  88.5451313
  19.7190113  62.2474913  87.2291313  19.6280113  61.9584913  87.9511313
  17.6430113  60.7554913  91.3761313  16.8370113  60.4654913  91.5431313
  17.5540113  61.6234913  91.3821313  17.5110113  60.8404913  91.4011313
  27.0020113  50.9444913  90.3911313  27.7460113  51.3964913  90.3281313
  26.4360113  51.4144913  89.9221313  27.0290113  51.0814913  90.3131313
  22.1800113  58.2284913  87.4691313  22.6560113  58.6024913  88.0971313
  21.3570113  58.3624913  87.7281313  22.1290113  58.3034913  87.6001313
  18.8900113  53.8314913  90.2101313  19.0510113  53.0874913  90.6371313
  18.8450113  53.5824913  89.3751313  18.9070113  53.6844913  90.1501313
  21.4440113  65.6214913  82.6971313  21.9900113  66.3004913  82.7511313
  21.0940113  65.7034913  81.9021313  21.4730113  65.7344913  82.5871313
  28.2870113  48.9244913  88.0611313  28.0070113  49.7494913  88.0171313
  29.0030113  48.9774913  88.5571313  28.3520113  49.0544913  88.1281313
  20.6420113  49.6394913  90.0901313  21.3470113  49.9594913  89.6881313
  20.8830113  48.8324913  90.3171313  20.7810113  49.5674913  90.0641313
  19.6270113  63.8494913  86.0861313  19.0030113  64.4314913  85.9041313
  19.8750113  63.5634913  85.3001313  19.5710113  63.8934913  85.9431313
  27.8450113  63.0334913  91.5791313  28.1910113  63.3034913  92.3331313
  28.1390113  63.6154913  90.9991313  27.9400113  63.1594913  91.6051313
  29.7080113  55.1794913  76.9181313  30.0860113  55.8564913  76.5181313
  28.8660113  55.4034913  76.9491313  29.6390113  55.3124913  76.8631313
  21.2210113  58.6254913  76.0011313  20.4160113  58.4484913  75.7161313
  21.1880113  59.4764913  76.1931313  21.0970113  58.7244913  75.9881313
  17.1510113  54.6924913  86.1511313  17.5910113  54.5894913  85.4051313
  17.6960113  54.3794913  86.7561313  17.2960113  54.6314913  86.1301313
  25.1670113  53.7944913  91.7431313  24.5190113  54.2644913  92.0911313
  25.7320113  53.7054913  92.4021313  25.1550113  53.8504913  91.8921313
  24.8550113  55.3314913  88.0411313  25.1570113  55.7514913  88.7441313
  24.8910113  54.4914913  88.2731313  24.9050113  55.2694913  88.1791313
  22.2800113  65.4984913  91.9661313  22.7580113  64.8984913  91.5501313
  21.9290113  65.0554913  92.6311313  22.2990113  65.3444913  92.0031313
  27.4030113  54.7784913  80.2931313  27.6100113  54.5774913  81.1171313
  28.1590113  55.0464913  79.9511313  27.5450113  54.7884913  80.3641313
  20.6980113  49.6774913  86.1981313  19.8720113  49.5284913  86.4351313
  20.6580113  49.7124913  85.3271313  20.5700113  49.6604913  86.1041313
  28.4250113  50.8614913  81.7671313  27.7110113  50.3904913  81.9381313
  28.2630113  51.2024913  80.9811313  28.2960113  50.8424913  81.6761313
  28.8680113  58.8054913  80.1471313  29.3440113  58.0764913  80.0991313
  28.0470113  58.5194913  80.0711313  28.8170113  58.6554913  80.1281313
  22.3390113  60.7174913  90.9861313  21.5440113  60.6534913  91.3371313
  22.4100113  61.5644913  90.7911313  22.2320113  60.8324913  91.0091313
  13.2630113  50.0754913  92.2331313  13.1230113  50.8704913  91.9021313
  12.4770113  49.8324913  92.5221313  13.1260113  50.1574913  92.2271313
  18.1690113  66.9244913  86.3031313  18.1800113  66.9834913  87.1731313
  17.7440113  66.1774913  86.1531313  18.1080113  66.8224913  86.4091313
  16.3270113  52.8194913  79.4581313  16.4530113  52.4904913  78.6601313
  15.5150113  52.5704913  79.6571313  16.2260113  52.7344913  79.3701313
  25.0840113  59.9724913  82.5021313  25.1600113  60.3134913  83.3011313
  25.2530113  59.1254913  82.6231313  25.1200113  59.8974913  82.6381313
  22.6060113  59.2464913  82.0671313  22.3080113  58.9314913  82.8241313
  23.3010113  59.7194913  82.3021313  22.6650113  59.2694913  82.2141313
  22.8280113  63.3644913  90.0941313  23.5150113  63.2504913  90.6191313
  22.9620113  64.1554913  89.7501313  22.9490113  63.4644913  90.1211313
  31.0040113  55.9734913  91.9051313  30.1490113  55.8514913  92.0311313
  31.1570113  55.5784913  91.1421313  30.9000113  55.8964913  91.8111313
  25.5170113  56.6384913  90.4811313  25.2620113  55.9194913  90.9031313
  26.3380113  56.7544913  90.7511313  25.6010113  56.5494913  90.5831313
  14.9330113  66.4224913  91.7451313  14.2790113  65.8534913  91.8431313
  14.5580113  67.1954913  91.8961313  14.7810113  66.4524913  91.7821313
  26.5350113  66.2024913  84.5971313  26.0840113  66.8454913  84.9761313
  27.2430113  66.1234913  85.1021313  26.5730113  66.2854913  84.7281313
  23.2360113  61.2924913  87.5271313  22.5420113  61.6944913  87.8701313
  23.9130113  61.7254913  87.8661313  23.2330113  61.4154913  87.6281313
  16.3040113  54.8304913  89.8741313  16.6790113  55.4494913  89.3871313
  16.9780113  54.3564913  90.1591313  16.4590113  54.8524913  89.8441313
  14.0790113  53.2784913  89.1491313  14.1560113  53.1094913  88.2961313
  14.8250113  53.6844913  89.3461313  14.2000113  53.3134913  89.0521313
  29.6380113  55.9184913  79.5891313  29.7410113  55.8604913  78.7251313
  30.3790113  55.5864913  79.9071313  29.7630113  55.8614913  79.5081313
  16.6330113  50.6884913  91.5601313  16.5520113  49.8444913  91.7661313
  16.3190113  50.7324913  90.7471313  16.5750113  50.5704913  91.4701313
  23.5580113  62.8834913  80.6961313  23.3530113  63.7164913  80.5371313
  22.7830113  62.5014913  80.8181313  23.4130113  62.9504913  80.6911313
  28.7400113  56.0644913  88.9451313  28.7380113  55.2014913  89.0691313
  28.8070113  56.3884913  89.7521313  28.7500113  55.9844913  89.0821313
  13.4760113  58.5044913  89.3731313  13.7960113  58.7234913  88.5921313
  13.3760113  57.6394913  89.3181313  13.5080113  58.4094913  89.2501313
  14.9320113  54.4404913  75.9911313  14.2600113  54.4544913  76.5471313
  15.0270113  53.5924913  75.8071313  14.8470113  54.3174913  76.0461313
  23.6130113  51.0544913  83.5811313  22.9130113  51.5724913  83.5251313
  23.6510113  50.6744913  82.7971313  23.5150113  51.0754913  83.4571313
  18.9200113  63.1454913  77.1051313  19.3610113  63.2254913  77.8531313
  18.1150113  62.9294913  77.3631313  18.8660113  63.1254913  77.2541313
  27.2110113  51.5704913  86.3811313  28.0660113  51.6694913  86.5261313
  26.8420113  52.1234913  86.9461313  27.2830113  51.6674913  86.4861313
  18.2390113  57.7964913  90.7581313  17.8430113  58.5704913  90.8331313
  17.8330113  57.4234913  90.0821313  18.1210113  57.8554913  90.6691313
  27.5150113  56.8504913  84.8721313  28.1810113  57.3914913  85.0321313
  27.1700113  57.1614913  84.1331313  27.5620113  56.9764913  84.7871313
  27.8280113  64.9164913  80.6791313  27.6540113  64.2624913  81.2291313
  28.5410113  64.6454913  80.2561313  27.9080113  64.7794913  80.6981313
  16.2490113  62.2154913  77.7061313  16.0050113  61.9084913  78.4861313
  16.2160113  61.5124913  77.1901313  16.2080113  62.0664913  77.7451313
  19.0680113  60.4604913  76.4491313  18.2500113  60.1924913  76.5891313
  19.0400113  61.3124913  76.6341313  18.9430113  60.5474913  76.4971313
  18.6680113  50.7734913  88.2081313  17.8040113  50.8574913  88.2881313
  18.8880113  50.2594913  88.8771313  18.5730113  50.7104913  88.3191313
  30.6860113  49.4084913  89.5371313  30.6340113  49.3644913  90.4071313
  31.3730113  48.9054913  89.3471313  30.7800113  49.3284913  89.6371313
  22.7710113  51.5214913  86.5821313  22.0340113  51.0674913  86.6951313
  23.3420113  51.1194913  87.1051313  22.7460113  51.3944913  86.6761313
  25.5030113  62.3694913  88.3701313  25.7090113  62.6704913  89.1621313
  25.4420113  63.0914913  87.8851313  25.5240113  62.5204913  88.4151313
  20.2740113  55.8504913  91.7861313  19.9520113  55.2744913  91.2161313
  19.9150113  56.6054913  91.5401313  20.1740113  55.8764913  91.6661313
  21.0700113  49.1024913  76.4131313  21.1480113  49.3494913  75.5801313
  20.3270113  49.4794913  76.6711313  20.9720113  49.1944913  76.3281313
  30.3150113  61.0084913  87.8281313  30.2830113  60.1464913  87.6931313
  29.6220113  61.3104913  87.3941313  30.2080113  60.9254913  87.7441313
  28.4200113  64.2684913  86.6251313  28.9470113  64.1854913  85.9341313
  28.0290113  63.4904913  86.6791313  28.4400113  64.1414913  86.5311313
  15.8880113  50.8564913  88.8561313  15.5450113  50.0894913  88.6221313
  15.1930113  51.3804913  88.9201313  15.7350113  50.8204913  88.8311313
  24.9340113  49.7124913  85.8331313  25.6040113  50.2564913  85.9601313
  24.4310113  50.1364913  85.2601313  24.9590113  49.8554913  85.7671313
  24.2930113  55.5204913  83.3261313  24.8440113  54.9134913  83.6261313
  23.8680113  55.7834913  84.0411313  24.3120113  55.4694913  83.4751313
  14.5410113  54.1704913  82.8121313  14.1730113  54.4724913  83.5431313
  15.0750113  53.5414913  83.0961313  14.5650113  54.1224913  82.9621313
  14.2290113  62.5784913  90.3231313  13.6550113  62.9944913  90.8321313
  14.9620113  63.0434913  90.4181313  14.2530113  62.7084913  90.4121313
  26.2630113  57.3514913  79.8881313  26.3310113  56.5014913  80.0691313
  25.4400113  57.4374913  79.6101313  26.1510113  57.2384913  79.8741313
  16.0150113  65.8454913  79.0981313  15.8700113  66.0014913  78.2521313
  16.8810113  65.9244913  79.1761313  16.1220113  65.8804913  78.9851313
  20.1820113  58.2424913  78.8261313  20.2820113  58.3814913  77.9711313
  21.0000113  58.1824913  79.1221313  20.3170113  58.2534913  78.7431313
  29.3420113  66.3064913  76.3061313  29.9790113  66.1724913  76.8871313
  29.0010113  65.5124913  76.1891313  29.3860113  66.1694913  76.3741313
  25.4170113  62.5714913  78.6281313  25.1660113  62.4434913  79.4541313
  25.1000113  61.8764913  78.2071313  25.3330113  62.4504913  78.6881313
  30.0610113  54.2294913  86.7481313  29.2280113  54.4794913  86.6761313
  30.0050113  53.3894913  86.9771313  29.9300113  54.1424913  86.7711313
  19.3210113  51.2174913  91.9421313  19.5550113  50.6414913  91.3291313
  18.4790113  51.0364913  92.0831313  19.2310113  51.1054913  91.8721313
  16.7020113  64.6604913  85.5751313  16.6230113  63.8504913  85.2591313
  16.2580113  65.1474913  85.0031313  16.6250113  64.6124913  85.4441313
  22.3030113  60.7794913  78.0581313  23.0200113  60.4324913  77.7021313
  22.2690113  61.5794913  77.7101313  22.4040113  60.8464913  77.9541313
  14.2740113  66.9044913  89.1561313  14.7670113  66.8484913  89.8741313
  14.4620113  66.1714913  88.7211313  14.3750113  66.7874913  89.1981313
  23.5210113  56.3364913  66.9678903  22.9970113  56.9324913  67.3308903
  23.9180113  55.9684913  67.6518903  23.5020113  56.3704913  67.1228903
  13.3900113  60.4764913  62.4238903  12.9490113  60.5944913  63.1668903
  13.1070113  59.7014913  62.1388903  13.2830113  60.3794913  62.4918903
  29.6650113  63.7774913  59.9388903  30.3660113  63.2584913  59.9348903
  29.0780113  63.3324913  59.4698903  29.6820113  63.6344913  59.8688903
  13.1330113  54.2684913  58.9308903  12.3550113  54.4304913  58.5708903
  13.1720113  53.3974913  58.9528903  13.0240113  54.1634913  58.8808903
  16.2720113  59.5314913  57.6028903  15.8800113  59.1604913  56.9168903
  16.1920113  58.9334913  58.2318903  16.2020113  59.3884913  57.5938903
  26.1920113  57.4034913  63.6438903  26.2720113  57.4074913  62.7748903
  25.6080113  56.7714913  63.7928903  26.1170113  57.3104913  63.5378903
  15.8990113  61.1724913  61.5028903  16.5070113  61.0024913  62.1058903
  15.1480113  61.0324913  61.9238903  15.8780113  61.1264913  61.6538903
  20.1810113  50.5074913  61.4518903  20.1110113  51.1844913  60.9058903
  20.9220113  50.1194913  61.2028903  20.2800113  50.5504913  61.3338903
  14.7900113  64.2634913  57.5798903  15.2570113  64.3474913  56.8478903
  15.2450113  63.6854913  58.0488903  14.9260113  64.1904913  57.5408903
  13.3300113  63.2114913  68.6788903  13.4590113  62.9314913  69.4948903
  12.7200113  62.6704913  68.3698903  13.2590113  63.0904913  68.7538903
  19.9040113  60.7364913  73.7458903  19.6680113  60.7334913  74.5858903
  19.1560113  60.5884913  73.3218903  19.7580113  60.7134913  73.8068903
  14.7760113  57.7324913  62.8808903  14.3140113  57.3404913  62.2538903
  15.4760113  57.2194913  62.9728903  14.8110113  57.5994913  62.8018903
  19.2840113  53.3424913  68.2278903  19.9620113  53.3604913  67.6788903
  19.2390113  52.5064913  68.4728903  19.3770113  53.2214913  68.1828903
  19.8860113  63.9284913  71.0088903  20.0240113  64.6884913  70.6018903
  20.6770113  63.5634913  71.0358903  20.0230113  63.9874913  70.9528903
  16.7770113  55.8324913  62.9038903  17.5940113  55.6454913  63.1468903
  16.3000113  55.2184913  63.2998903  16.8270113  55.7144913  62.9988903
  20.9810113  61.8134913  65.5138903  21.3290113  61.0144913  65.5438903
  21.6460113  62.3174913  65.2588903  21.1310113  61.7694913  65.4808903
  21.0380113  61.2624913  61.7248903  21.3690113  60.6184913  62.2108903
  21.2780113  61.0514913  60.9138903  21.1220113  61.1364913  61.6768903
  23.0060113  55.3934913  73.0638903  22.1580113  55.2944913  72.8858903
  23.0350113  56.1384913  73.5178903  22.8850113  55.4894913  73.1048903
  17.3740113  50.9264913  62.1698903  17.0780113  51.4274913  61.5198903
  18.2410113  51.0044913  62.1128903  17.4580113  51.0124913  62.0658903
  20.3530113  50.0684913  64.3928903  20.4260113  50.9284913  64.5218903
  20.3150113  49.9934913  63.5248903  20.3580113  50.1844913  64.2838903
  13.2320113  55.4934913  65.8938903  12.9760113  56.3244913  65.8188903
  12.5680113  55.1104913  66.3108903  13.0960113  55.5594913  65.9448903
  13.1420113  65.2034913  63.7938903  12.5500113  65.7614913  63.4808903
  13.5680113  64.9344913  63.0818903  13.1180113  65.2454913  63.6428903
  18.9820113  63.0474913  61.2738903  18.4030113  62.7724913  61.8658903
  19.6060113  62.4384913  61.2988903  18.9890113  62.9174913  61.3648903
  25.1250113  65.3354913  58.7958903  25.8520113  65.8074913  58.8978903
  25.3540113  64.5414913  59.0758903  25.2670113  65.2884913  58.8528903
  23.2930113  65.7274913  60.7858903  23.5070113  66.2544913  61.4478903
  24.0600113  65.5534913  60.4068903  23.4380113  65.7794913  60.8278903
  16.2610113  50.3104913  66.3848903  15.7400113  49.6824913  66.0768903
  16.8520113  49.8734913  66.8558903  16.2720113  50.1524913  66.4088903
  19.5670113  52.4434913  75.6828903  19.6840113  51.9894913  74.9468903
  19.8550113  53.2414913  75.4798903  19.6270113  52.4944913  75.5438903
  14.6870113  63.8734913  61.7248903  15.3430113  63.2984913  61.7398903
  15.0760113  64.6224913  61.5038903  14.8420113  63.8984913  61.6948903
  25.7320113  65.7374913  69.0908903  26.4760113  66.1934913  69.0808903
  25.6110113  65.5234913  68.2538903  25.8240113  65.7734913  68.9658903
  15.3000113  52.0404913  74.6668903  14.5220113  51.6504913  74.5948903
  15.7910113  51.6284913  74.0758903  15.2570113  51.9214913  74.5688903
  15.5050113  62.3604913  65.2248903  15.9280113  62.0044913  64.5508903
  15.8290113  61.9384913  65.9168903  15.6150113  62.2454913  65.2278903
  18.7360113  65.2124913  64.5208903  19.5800113  65.3164913  64.3258903
  18.4390113  66.0304913  64.5888903  18.8170113  65.3484913  64.5018903
  21.9490113  49.6834913  73.8348903  22.1270113  48.8744913  73.5598903
  21.8060113  50.1244913  73.0958903  21.9540113  49.6294913  73.6848903
  22.5430113  54.6094913  62.6078903  22.8300113  54.3774913  61.8178903
  23.2750113  54.6884913  63.0768903  22.6930113  54.5864913  62.5608903
  23.2650113  54.9484913  57.7288903  23.5460113  55.7364913  57.9778903
  22.4890113  55.1134913  57.3658903  23.1920113  55.0894913  57.7118903
  27.3060113  66.9224913  59.1958903  27.9710113  66.7744913  58.6508903
  27.6660113  66.8394913  59.9858903  27.4580113  66.8884913  59.2318903
  17.7340113  66.4314913  70.2608903  18.0260113  66.3644913  71.0808903
  17.1080113  65.8264913  70.2158903  17.6850113  66.3324913  70.3758903
  12.6480113  52.5884913  72.2528903  12.6440113  53.1754913  72.8988903
  13.2420113  52.9004913  71.6958903  12.7350113  52.7214913  72.2658903
  24.9860113  62.9224913  72.7948903  24.9520113  63.3044913  73.5788903
  25.8400113  62.8804913  72.6238903  25.1070113  62.9724913  72.8858903
  22.1240113  63.1194913  57.5448903  21.9430113  63.6644913  58.2018903
  22.8900113  63.4094913  57.2438903  22.2100113  63.2434913  57.5978903
  13.5850113  52.1834913  61.1678903  13.4710113  51.3194913  61.1988903
  13.1100113  52.4774913  61.8378903  13.4980113  52.0994913  61.2708903
  15.7270113  64.5934913  69.3828903  15.0290113  64.0854913  69.5088903
  15.9870113  64.3884913  68.5748903  15.6620113  64.4884913  69.2818903
  22.8890113  53.3914913  59.9128903  22.3810113  52.7294913  59.6588903
  22.9410113  53.8954913  59.2028903  22.8220113  53.3684913  59.7708903
  23.4380113  66.0864913  70.2928903  24.2060113  66.0064913  69.8868903
  22.8550113  65.9654913  69.6548903  23.4650113  66.0564913  70.1388903
  29.7150113  66.6894913  63.1938903  29.2600113  67.4064913  63.3948903
  29.1010113  66.1184913  62.9518903  29.5570113  66.7114913  63.1878903
  21.4870113  52.6994913  64.3258903  21.5610113  53.2674913  63.6678903
  21.6080113  53.1914913  65.0358903  21.5150113  52.8564913  64.3338903
  26.7120113  62.5344913  62.7378903  27.4130113  62.0524913  62.9268903
  26.0520113  61.9654913  62.7828903  26.7180113  62.3794913  62.7718903
  17.0880113  63.4444913  71.9498903  17.9290113  63.5074913  71.7278903
  17.0510113  63.8414913  72.7258903  17.2070113  63.5124913  72.0318903
  16.0950113  48.5224913  62.6738903  16.6310113  49.2104913  62.6638903
  16.0980113  48.2484913  61.8458903  16.1740113  48.5834913  62.5498903
  19.0510113  58.9554913  66.6988903  19.2230113  58.7454913  67.5278903
  18.3960113  58.4214913  66.4828903  18.9800113  58.8454913  66.7898903
  25.2790113  52.8694913  70.2138903  25.1840113  53.1884913  71.0198903
  24.6860113  52.2304913  70.1758903  25.1770113  52.8214913  70.3278903
  19.8010113  58.8934913  69.2888903  19.8540113  59.7404913  69.4908903
  19.5160113  58.5234913  70.0258903  19.7670113  58.9634913  69.4268903
  25.9780113  59.5884913  68.4188903  25.4640113  59.1764913  68.9898903
  25.8520113  60.4324913  68.5998903  25.8840113  59.6524913  68.5298903
  12.6220113  63.2644913  75.4998903  13.3780113  63.6134913  75.7578903
  12.7990113  62.4114913  75.4428903  12.7600113  63.1894913  75.5298903
  16.5430113  52.3324913  64.3278903  16.8150113  51.9024913  63.6198903
  16.3670113  51.6964913  64.8988903  16.5570113  52.1754913  64.3078903
  29.2310113  60.0274913  58.5458903  29.3500113  59.7404913  59.3608903
  30.0380113  60.0484913  58.2158903  29.3670113  59.9884913  58.6178903
  16.3670113  59.7594913  63.8768903  17.2180113  59.6794913  63.7038903
  16.0100113  59.0774913  63.4648903  16.4400113  59.6464913  63.7898903
  15.1340113  66.4844913  65.1138903  14.4610113  65.9864913  64.8688903
  15.5370113  66.6694913  64.3628903  15.0940113  66.4384913  64.9668903
  14.6840113  53.4344913  67.4098903  15.5270113  53.6544913  67.3668903
  14.2950113  54.0074913  66.8788903  14.7510113  53.5514913  67.3248903
  31.4650113  64.5364913  72.7998903  30.7830113  64.8464913  72.3528903
  31.0960113  64.0784913  73.4448903  31.3090113  64.5144913  72.8288903
  18.7350113  59.7664913  62.1118903  19.4480113  60.2614913  62.2018903
  18.9570113  59.1994913  61.4858903  18.8730113  59.7554913  62.0328903
  12.8910113  61.4094913  65.4318903  12.2240113  61.8974913  65.7078903
  13.5710113  61.9544913  65.4608903  12.8930113  61.5614913  65.4768903
  20.5380113  55.1194913  75.5278903  20.0540113  55.6964913  75.9698903
  20.5100113  55.4144913  74.7068903  20.4620113  55.2484913  75.4718903
  31.6360113  55.8034913  70.1398903  31.8510113  55.0034913  69.8638903
  30.7860113  55.8634913  69.9508903  31.5420113  55.6944913  70.0708903
  12.9570113  58.0934913  60.5348903  12.7720113  57.2544913  60.6868903
  13.6160113  58.0574913  59.9648903  13.0270113  57.9644913  60.4728903
  23.2580113  63.4694913  64.4388903  22.7350113  64.1034913  64.1458903
  23.5680113  63.1054913  63.7098903  23.2260113  63.5094913  64.2878903
  13.1290113  62.2574913  60.1098903  13.6810113  62.8264913  60.4738903
  12.8970113  61.7424913  60.7748903  13.1760113  62.2654913  60.2618903
  17.3330113  61.2574913  67.1988903  17.8000113  61.5464913  67.8768903
  17.9050113  60.7794913  66.7448903  17.4870113  61.2294913  67.2318903
  12.9590113  60.7064913  57.7378903  13.7150113  60.2744913  57.7958903
  12.9740113  61.2384913  58.4288903  13.0730113  60.7214913  57.8488903
  13.8990113  58.9274913  65.7428903  14.3300113  58.7984913  64.9958903
  13.6940113  59.7754913  65.7168903  13.9320113  59.0334913  65.6288903
  20.2450113  52.4914913  59.3928903  20.2430113  52.3744913  58.5278903
  20.0640113  53.3394913  59.4848903  20.2180113  52.5994913  59.2788903
  29.2990113  64.9184913  70.8898903  28.6280113  65.4324913  71.1078903
  29.3620113  65.0184913  70.0258903  29.2090113  65.0094913  70.7948903
  17.9830113  62.4434913  64.0248903  18.1090113  63.2864913  64.2118903
  18.6510113  62.0444913  64.4208903  18.1010113  62.5094913  64.1108903
  16.1130113  55.9264913  73.8868903  15.5770113  55.4204913  74.3548903
  16.1330113  55.5364913  73.1068903  16.0360113  55.7934913  73.8408903
  16.5980113  55.3234913  59.0268903  16.4700113  54.8754913  59.7648903
  16.0160113  54.9814913  58.4748903  16.4930113  55.2064913  59.0548903
  16.7650113  57.1534913  65.6258903  15.9840113  57.0944913  65.2428903
  16.8370113  56.4014913  66.0628903  16.6600113  57.0344913  65.6338903
  17.1950113  56.8904913  69.0938903  17.2200113  56.2154913  68.5428903
  16.5490113  57.3864913  68.7818903  17.1040113  56.8634913  68.9668903
  21.2950113  65.6674913  68.4858903  21.0180113  65.0264913  67.9628903
  21.0870113  66.3934913  68.0478903  21.2240113  65.6804913  68.3438903
  23.7350113  50.5094913  70.9188903  23.8840113  49.6844913  70.6758903
  24.1140113  50.5644913  71.7028903  23.8130113  50.3954913  70.9988903
  14.9940113  58.2454913  74.6528903  14.9570113  58.7464913  73.9388903
  15.3250113  57.4934913  74.3578903  15.0370113  58.2074913  74.5038903
  20.8930113  63.2954913  74.0878903  21.2470113  63.1174913  74.8648903
  20.4570113  62.5664913  73.8888903  20.8810113  63.1614913  74.1738903
  21.8650113  54.0424913  66.7258903  22.3450113  54.7414913  66.9338903
  22.2380113  53.3954913  67.1768903  21.9910113  54.0504913  66.8228903
  24.0540113  57.2114913  58.9998903  24.0460113  57.9334913  58.5098903
  23.4150113  57.3464913  59.5768903  23.9590113  57.3384913  59.0128903
  29.0260113  61.0814913  62.9808903  29.3820113  60.7314913  63.6958903
  29.0180113  60.4204913  62.4108903  29.0780113  60.9314913  63.0018903
  25.0710113  64.1474913  66.8248903  24.4680113  63.8514913  66.2678903
  25.6160113  64.5994913  66.3158903  25.0620113  64.1704913  66.6668903
  25.0840113  60.9984913  66.2248903  24.2870113  61.2224913  66.4988903
  25.3420113  60.4044913  66.8098903  25.0040113  60.9434913  66.3518903
  18.9760113  65.8104913  60.6728903  18.8290113  65.0344913  61.0438903
  19.6650113  65.6634913  60.1578903  19.0560113  65.6734913  60.6518903
  18.6470113  49.5534913  58.6608903  18.7440113  49.4464913  59.5218903
  17.9390113  50.0594913  58.5958903  18.5570113  49.6124913  58.7788903
  21.2680113  65.3264913  59.0748903  21.8900113  65.4894913  59.6648903
  21.3040113  66.0174913  58.5428903  21.3650113  65.4524913  59.0838903
  28.3440113  58.9964913  71.0708903  28.3990113  59.1214913  70.2088903
  29.0970113  59.3164913  71.3728903  28.4630113  59.0614913  70.9878903
  24.5350113  64.3454913  75.3478903  24.6990113  64.6284913  76.1568903
  24.7980113  65.0064913  74.8428903  24.5980113  64.4854913  75.3928903
  15.7690113  57.8604913  59.9038903  16.0930113  57.0814913  59.6818903
  16.4150113  58.2284913  60.3588903  15.9120113  57.7994913  59.9378903
  24.0750113  58.8024913  70.6708903  23.9200113  59.4124913  71.2748903
  24.6090113  58.2444913  71.0768903  24.1310113  58.8104913  70.8198903
  12.7660113  49.5214913  60.8718903  12.8950113  48.8134913  60.3798903
  12.3990113  49.2034913  61.5968903  12.7310113  49.3694913  60.9068903
  22.4590113  57.2024913  61.3288903  22.5180113  57.8524913  61.9078903
  22.2700113  56.5064913  61.8198903  22.4400113  57.1954913  61.4868903
  27.6850113  61.5314913  67.1978903  27.2060113  61.8294913  66.5318903
  27.3290113  60.7554913  67.3758903  27.5620113  61.4604913  67.1258903
  16.9550113  51.7194913  57.8408903  16.4440113  51.7724913  57.1348903
  17.7390113  51.9594913  57.5448903  16.9950113  51.7624913  57.6928903
  21.6820113  59.2494913  65.7598903  20.8350113  59.0554913  65.8408903
  22.0060113  59.0844913  66.5528903  21.6040113  59.1964913  65.8888903
  18.4340113  65.9794913  56.6458903  18.8730113  65.2824913  56.9338903
  18.6410113  66.6034913  57.2188903  18.5300113  65.9684913  56.7728903
  15.5300113  58.9424913  68.0758903  16.2520113  59.4304913  68.0388903
  15.2600113  58.9124913  67.2468903  15.5970113  59.0104913  67.9478903
  18.7600113  54.1134913  64.8108903  19.6060113  53.9234913  64.9088903
  18.3900113  53.3364913  64.6728903  18.8300113  53.9704913  64.8048903
  31.3770113  65.6974913  59.1378903  32.0710113  65.2304913  58.8898903
  30.8380113  65.0994913  59.4748903  31.4000113  65.5394913  59.1508903
  13.5810113  55.4514913  61.4658903  14.0700113  55.1594913  62.1268903
  13.7100113  54.8584913  60.8388903  13.6720113  55.3204913  61.4708903
  28.6160113  58.4734913  68.3168903  28.6090113  57.6974913  68.7148903
  27.7750113  58.7074913  68.3098903  28.4910113  58.3934913  68.3748903
  18.1060113  56.8854913  56.9518903  17.4960113  56.4804913  57.4258903
  17.7200113  57.0034913  56.1788903  17.9590113  56.8424913  56.9078903
  14.9250113  59.9944913  72.3538903  14.5040113  59.4764913  71.7928903
  14.5730113  60.7804913  72.2108903  14.8110113  60.0344913  72.2498903
  29.8720113  58.5444913  65.7538903  29.5860113  58.9454913  66.4738903
  30.7320113  58.4824913  65.8808903  29.9570113  58.5944913  65.8788903
  19.5610113  55.3464913  59.6618903  19.8330113  56.1724913  59.7288903
  18.6980113  55.4214913  59.5658903  19.4740113  55.4794913  59.6568903
  27.5340113  52.4684913  74.2938903  27.0090113  52.9274913  74.8178903
  27.1730113  51.6734913  74.2878903  27.4030113  52.4184913  74.3698903
  13.0410113  51.3164913  66.1978903  13.0850113  51.6604913  65.3968903
  13.7960113  51.5534913  66.5648903  13.1590113  51.4024913  66.1338903
  31.0030113  64.1774913  66.2828903  31.2930113  64.4344913  65.5018903
  31.6980113  64.2734913  66.8018903  31.1490113  64.2294913  66.2438903
  26.0260113  56.0374913  74.3698903  26.0990113  56.1414913  75.2328903
  25.3920113  56.5954913  74.1488903  25.9430113  56.1354913  74.4648903
  28.2940113  56.3564913  72.7348903  28.6130113  57.1424913  72.9378903
  27.9240113  56.0864913  73.4778903  28.2870113  56.4324913  72.8748903
  27.6080113  62.7804913  58.2648903  27.9420113  61.9744913  58.2998903
  26.8530113  62.7084913  58.6948903  27.5460113  62.6504913  58.3338903
  30.9920113  56.8984913  75.4698903  30.9400113  56.5574913  74.6688903
  31.7290113  57.3654913  75.4478903  31.0930113  56.9174913  75.3478903
  30.5300113  60.5744913  71.6758903  31.1580113  60.0254913  71.4198903
  30.4690113  61.1394913  71.0138903  30.6140113  60.5774913  71.5398903
  24.9820113  60.6554913  57.6678903  25.6660113  60.1414913  57.4988903
  24.5650113  60.7014913  56.9028903  25.0210113  60.5864913  57.5298903
  19.6640113  61.8054913  68.9718903  19.3660113  62.3974913  69.5388903
  19.7190113  62.2474913  68.2228903  19.6280113  61.9584913  68.9448903
  17.6430113  60.7554913  72.3698903  16.8370113  60.4654913  72.5368903
  17.5540113  61.6234913  72.3758903  17.5110113  60.8404913  72.3948903
  22.1800113  58.2284913  68.4628903  22.6560113  58.6024913  69.0908903
  21.3570113  58.3624913  68.7218903  22.1290113  58.3034913  68.5938903
  18.8900113  53.8314913  71.2038903  19.0510113  53.0874913  71.6308903
  18.8450113  53.5824913  70.3688903  18.9070113  53.6844913  71.1438903
  21.4440113  65.6214913  63.6908903  21.9900113  66.3004913  63.7448903
  21.0940113  65.7034913  62.8958903  21.4730113  65.7344913  63.5808903
  20.6420113  49.6394913  71.0838903  21.3470113  49.9594913  70.6818903
  20.8830113  48.8324913  71.3108903  20.7810113  49.5674913  71.0578903
  19.6270113  63.8494913  67.0798903  19.0030113  64.4314913  66.8978903
  19.8750113  63.5634913  66.2938903  19.5710113  63.8934913  66.9368903
  23.9360113  60.4834913  74.0688903  24.6930113  60.7694913  73.7428903
  23.3890113  60.5354913  73.3908903  23.9670113  60.5334913  73.9198903
  27.8450113  63.0334913  72.5728903  28.1910113  63.3034913  73.3268903
  28.1390113  63.6154913  71.9928903  27.9400113  63.1594913  72.5988903
  21.2210113  58.6254913  56.9948903  20.4160113  58.4484913  56.7098903
  21.1880113  59.4764913  57.1868903  21.0970113  58.7244913  56.9818903
  17.1510113  54.6924913  67.1448903  17.5910113  54.5894913  66.3988903
  17.6960113  54.3794913  67.7498903  17.2960113  54.6314913  67.1238903
  25.1670113  53.7944913  72.7368903  24.5190113  54.2644913  73.0848903
  25.7320113  53.7054913  73.3958903  25.1550113  53.8504913  72.8858903
  24.8550113  55.3314913  69.0348903  25.1570113  55.7514913  69.7378903
  24.8910113  54.4914913  69.2668903  24.9050113  55.2694913  69.1728903
  22.2800113  65.4984913  72.9598903  22.7580113  64.8984913  72.5438903
  21.9290113  65.0554913  73.6248903  22.2990113  65.3444913  72.9968903
  20.6980113  49.6774913  67.1918903  19.8720113  49.5284913  67.4288903
  20.6580113  49.7124913  66.3208903  20.5700113  49.6604913  67.0978903
  28.8680113  58.8054913  61.1408903  29.3440113  58.0764913  61.0928903
  28.0470113  58.5194913  61.0648903  28.8170113  58.6554913  61.1218903
  22.3390113  60.7174913  71.9798903  21.5440113  60.6534913  72.3308903
  22.4100113  61.5644913  71.7848903  22.2320113  60.8324913  72.0028903
  13.2630113  50.0754913  73.2268903  13.1230113  50.8704913  72.8958903
  12.4770113  49.8324913  73.5158903  13.1260113  50.1574913  73.2208903
  18.1690113  66.9244913  67.2968903  18.1800113  66.9834913  68.1668903
  17.7440113  66.1774913  67.1468903  18.1080113  66.8224913  67.4028903
  16.3270113  52.8194913  60.4518903  16.4530113  52.4904913  59.6538903
  15.5150113  52.5704913  60.6508903  16.2260113  52.7344913  60.3638903
  25.0840113  59.9724913  63.4958903  25.1600113  60.3134913  64.2948903
  25.2530113  59.1254913  63.6168903  25.1200113  59.8974913  63.6318903
  22.6060113  59.2464913  63.0608903  22.3080113  58.9314913  63.8178903
  23.3010113  59.7194913  63.2958903  22.6650113  59.2694913  63.2078903
  22.8280113  63.3644913  71.0878903  23.5150113  63.2504913  71.6128903
  22.9620113  64.1554913  70.7438903  22.9490113  63.4644913  71.1148903
  31.0040113  55.9734913  72.8988903  30.1490113  55.8514913  73.0248903
  31.1570113  55.5784913  72.1358903  30.9000113  55.8964913  72.8048903
  25.5170113  56.6384913  71.4748903  25.2620113  55.9194913  71.8968903
  26.3380113  56.7544913  71.7448903  25.6010113  56.5494913  71.5768903
  14.9330113  66.4224913  72.7388903  14.2790113  65.8534913  72.8368903
  14.5580113  67.1954913  72.8898903  14.7810113  66.4524913  72.7758903
  23.4510113  57.8284913  74.6618903  23.7740113  58.5144913  74.2298903
  22.7470113  58.1514913  75.0638903  23.3940113  57.9774913  74.6568903
  26.5350113  66.2024913  65.5908903  26.0840113  66.8454913  65.9698903
  27.2430113  66.1234913  66.0958903  26.5730113  66.2854913  65.7218903
  23.2360113  61.2924913  68.5208903  22.5420113  61.6944913  68.8638903
  23.9130113  61.7254913  68.8598903  23.2330113  61.4154913  68.6218903
  28.6130113  63.8854913  75.1008903  29.3890113  63.4954913  75.1838903
  28.1440113  63.5494913  75.7558903  28.6580113  63.7784913  75.2098903
  16.3040113  54.8304913  70.8678903  16.6790113  55.4494913  70.3808903
  16.9780113  54.3564913  71.1528903  16.4590113  54.8524913  70.8378903
  14.0790113  53.2784913  70.1428903  14.1560113  53.1094913  69.2898903
  14.8250113  53.6844913  70.3398903  14.2000113  53.3134913  70.0458903
  16.6330113  50.6884913  72.5538903  16.5520113  49.8444913  72.7598903
  16.3190113  50.7324913  71.7408903  16.5750113  50.5704913  72.4638903
  23.5580113  62.8834913  61.6898903  23.3530113  63.7164913  61.5308903
  22.7830113  62.5014913  61.8118903  23.4130113  62.9504913  61.6848903
  28.7400113  56.0644913  69.9388903  28.7380113  55.2014913  70.0628903
  28.8070113  56.3884913  70.7458903  28.7500113  55.9844913  70.0758903
  13.4760113  58.5044913  70.3668903  13.7960113  58.7234913  69.5858903
  13.3760113  57.6394913  70.3118903  13.5080113  58.4094913  70.2438903
  14.9320113  54.4404913  56.9848903  14.2600113  54.4544913  57.5408903
  15.0270113  53.5924913  56.8008903  14.8470113  54.3174913  57.0398903
  24.6190113  50.8644913  73.7208903  24.7110113  51.5764913  74.2148903
  23.9820113  50.4194913  74.1178903  24.5380113  50.9034913  73.8528903
  23.6130113  51.0544913  64.5748903  22.9130113  51.5724913  64.5188903
  23.6510113  50.6744913  63.7908903  23.5150113  51.0754913  64.4508903
  18.9200113  63.1454913  58.0988903  19.3610113  63.2254913  58.8468903
  18.1150113  62.9294913  58.3568903  18.8660113  63.1254913  58.2478903
  18.2390113  57.7964913  71.7518903  17.8430113  58.5704913  71.8268903
  17.8330113  57.4234913  71.0758903  18.1210113  57.8554913  71.6628903
  27.8280113  64.9164913  61.6728903  27.6540113  64.2624913  62.2228903
  28.5410113  64.6454913  61.2498903  27.9080113  64.7794913  61.6918903
  16.2490113  62.2154913  58.6998903  16.0050113  61.9084913  59.4798903
  16.2160113  61.5124913  58.1838903  16.2080113  62.0664913  58.7388903
  19.0680113  60.4604913  57.4428903  18.2500113  60.1924913  57.5828903
  19.0400113  61.3124913  57.6278903  18.9430113  60.5474913  57.4908903
  18.6680113  50.7734913  69.2018903  17.8040113  50.8574913  69.2818903
  18.8880113  50.2594913  69.8708903  18.5730113  50.7104913  69.3128903
  22.7710113  51.5214913  67.5758903  22.0340113  51.0674913  67.6888903
  23.3420113  51.1194913  68.0988903  22.7460113  51.3944913  67.6698903
  25.5030113  62.3694913  69.3638903  25.7090113  62.6704913  70.1558903
  25.4420113  63.0914913  68.8788903  25.5240113  62.5204913  69.4088903
  25.0370113  66.5834913  73.6098903  24.2840113  66.5654913  73.1688903
  25.2050113  67.4354913  73.6938903  24.9510113  66.7064913  73.5568903
  21.0700113  49.1024913  57.4068903  21.1480113  49.3494913  56.5738903
  20.3270113  49.4794913  57.6648903  20.9720113  49.1944913  57.3218903
  30.3150113  61.0084913  68.8218903  30.2830113  60.1464913  68.6868903
  29.6220113  61.3104913  68.3878903  30.2080113  60.9254913  68.7378903
  18.7090113  66.2064913  73.0278903  18.7500113  66.3324913  73.8908903
  19.3600113  65.6464913  72.8718903  18.8110113  66.1424913  73.1328903
  28.4200113  64.2684913  67.6188903  28.9470113  64.1854913  66.9278903
  28.0290113  63.4904913  67.6728903  28.4400113  64.1414913  67.5248903
  15.8880113  50.8564913  69.8498903  15.5450113  50.0894913  69.6158903
  15.1930113  51.3804913  69.9138903  15.7350113  50.8204913  69.8248903
  16.3020113  64.5894913  74.3878903  16.8970113  65.0204913  74.8598903
  15.9380113  65.2134913  73.8988903  16.3360113  64.7454913  74.3848903
  24.2930113  55.5204913  64.3198903  24.8440113  54.9134913  64.6198903
  23.8680113  55.7834913  65.0348903  24.3120113  55.4694913  64.4688903
  14.5410113  54.1704913  63.8058903  14.1730113  54.4724913  64.5368903
  15.0750113  53.5414913  64.0898903  14.5650113  54.1224913  63.9558903
  14.2290113  62.5784913  71.3168903  13.6550113  62.9944913  71.8258903
  14.9620113  63.0434913  71.4118903  14.2530113  62.7084913  71.4058903
  26.2630113  57.3514913  60.8818903  26.3310113  56.5014913  61.0628903
  25.4400113  57.4374913  60.6038903  26.1510113  57.2384913  60.8678903
  16.0150113  65.8454913  60.0918903  15.8700113  66.0014913  59.2458903
  16.8810113  65.9244913  60.1698903  16.1220113  65.8804913  59.9788903
  20.1820113  58.2424913  59.8198903  20.2820113  58.3814913  58.9648903
  21.0000113  58.1824913  60.1158903  20.3170113  58.2534913  59.7368903
  29.3420113  66.3064913  57.2998903  29.9790113  66.1724913  57.8808903
  29.0010113  65.5124913  57.1828903  29.3860113  66.1694913  57.3678903
  29.5370113  58.7244913  74.0328903  30.1710113  58.5544913  74.6068903
  29.9540113  59.1274913  73.3808903  29.6920113  58.7594913  74.0218903
  25.4170113  62.5714913  59.6218903  25.1660113  62.4434913  60.4478903
  25.1000113  61.8764913  59.2008903  25.3330113  62.4504913  59.6818903
  30.1620113  53.2884913  74.7708903  29.9660113  53.9324913  75.3258903
  29.4400113  52.7984913  74.7628903  30.0270113  53.3114913  74.8518903
  19.3210113  51.2174913  72.9358903  19.5550113  50.6414913  72.3228903
  18.4790113  51.0364913  73.0768903  19.2310113  51.1054913  72.8658903
  26.9480113  58.8354913  75.3878903  27.8190113  58.7994913  75.3518903
  26.7290113  59.2554913  74.6558903  27.0450113  58.8914913  75.2748903
  16.7020113  64.6604913  66.5688903  16.6230113  63.8504913  66.2528903
  16.2580113  65.1474913  65.9968903  16.6250113  64.6124913  66.4378903
  22.3030113  60.7794913  59.0518903  23.0200113  60.4324913  58.6958903
  22.2690113  61.5794913  58.7038903  22.4040113  60.8464913  58.9478903
  14.2740113  66.9044913  70.1498903  14.7670113  66.8484913  70.8678903
  14.4620113  66.1714913  69.7148903  14.3750113  66.7874913  70.1918903
  23.7120113  49.4204913  43.2906493  23.4670113  49.9084913  42.6106493
  24.5750113  49.3474913  43.1906493  23.8030113  49.4814913  43.1756493
  23.5210113  56.3364913  47.9616493  22.9970113  56.9324913  48.3246493
  23.9180113  55.9684913  48.6456493  23.5020113  56.3704913  48.1166493
  13.3900113  60.4764913  43.4176493  12.9490113  60.5944913  44.1606493
  13.1070113  59.7014913  43.1326493  13.2830113  60.3794913  43.4856493
  29.6650113  63.7774913  40.9326493  30.3660113  63.2584913  40.9286493
  29.0780113  63.3324913  40.4636493  29.6820113  63.6344913  40.8626493
  13.1330113  54.2684913  39.9246493  12.3550113  54.4304913  39.5646493
  13.1720113  53.3974913  39.9466493  13.0240113  54.1634913  39.8746493
  16.2720113  59.5314913  38.5966493  15.8800113  59.1604913  37.9106493
  16.1920113  58.9334913  39.2256493  16.2020113  59.3884913  38.5876493
  26.1920113  57.4034913  44.6376493  26.2720113  57.4074913  43.7686493
  25.6080113  56.7714913  44.7866493  26.1170113  57.3104913  44.5316493
  15.8990113  61.1724913  42.4966493  16.5070113  61.0024913  43.0996493
  15.1480113  61.0324913  42.9176493  15.8780113  61.1264913  42.6476493
  20.1810113  50.5074913  42.4456493  20.1110113  51.1844913  41.8996493
  20.9220113  50.1194913  42.1966493  20.2800113  50.5504913  42.3276493
  14.7900113  64.2634913  38.5736493  15.2570113  64.3474913  37.8416493
  15.2450113  63.6854913  39.0426493  14.9260113  64.1904913  38.5346493
  13.3300113  63.2114913  49.6726493  13.4590113  62.9314913  50.4886493
  12.7200113  62.6704913  49.3636493  13.2590113  63.0904913  49.7476493
  19.9040113  60.7364913  54.7396493  19.6680113  60.7334913  55.5796493
  19.1560113  60.5884913  54.3156493  19.7580113  60.7134913  54.8006493
  14.7760113  57.7324913  43.8746493  14.3140113  57.3404913  43.2476493
  15.4760113  57.2194913  43.9666493  14.8110113  57.5994913  43.7956493
  19.2840113  53.3424913  49.2216493  19.9620113  53.3604913  48.6726493
  19.2390113  52.5064913  49.4666493  19.3770113  53.2214913  49.1766493
  19.8860113  63.9284913  52.0026493  20.0240113  64.6884913  51.5956493
  20.6770113  63.5634913  52.0296493  20.0230113  63.9874913  51.9466493
  16.7770113  55.8324913  43.8976493  17.5940113  55.6454913  44.1406493
  16.3000113  55.2184913  44.2936493  16.8270113  55.7144913  43.9926493
  20.9810113  61.8134913  46.5076493  21.3290113  61.0144913  46.5376493
  21.6460113  62.3174913  46.2526493  21.1310113  61.7694913  46.4746493
  21.0380113  61.2624913  42.7186493  21.3690113  60.6184913  43.2046493
  21.2780113  61.0514913  41.9076493  21.1220113  61.1364913  42.6706493
  23.0060113  55.3934913  54.0576493  22.1580113  55.2944913  53.8796493
  23.0350113  56.1384913  54.5116493  22.8850113  55.4894913  54.0986493
  17.3740113  50.9264913  43.1636493  17.0780113  51.4274913  42.5136493
  18.2410113  51.0044913  43.1066493  17.4580113  51.0124913  43.0596493
  27.5640113  48.3534913  53.1716493  27.4060113  49.1224913  52.7896493
  26.7920113  48.1334913  53.5156493  27.4260113  48.4344913  53.1666493
  20.3530113  50.0684913  45.3866493  20.4260113  50.9284913  45.5156493
  20.3150113  49.9934913  44.5186493  20.3580113  50.1844913  45.2776493
  25.0260113  52.9944913  37.6856493  24.5760113  53.6754913  37.9926493
  25.1400113  52.4904913  38.3886493  24.9770113  53.0204913  37.8346493
  13.2320113  55.4934913  46.8876493  12.9760113  56.3244913  46.8126493
  12.5680113  55.1104913  47.3046493  13.0960113  55.5594913  46.9386493
  13.1420113  65.2034913  44.7876493  12.5500113  65.7614913  44.4746493
  13.5680113  64.9344913  44.0756493  13.1180113  65.2454913  44.6366493
  18.9820113  63.0474913  42.2676493  18.4030113  62.7724913  42.8596493
  19.6060113  62.4384913  42.2926493  18.9890113  62.9174913  42.3586493
  25.1250113  65.3354913  39.7896493  25.8520113  65.8074913  39.8916493
  25.3540113  64.5414913  40.0696493  25.2670113  65.2884913  39.8466493
  23.2930113  65.7274913  41.7796493  23.5070113  66.2544913  42.4416493
  24.0600113  65.5534913  41.4006493  23.4380113  65.7794913  41.8216493
  16.2610113  50.3104913  47.3786493  15.7400113  49.6824913  47.0706493
  16.8520113  49.8734913  47.8496493  16.2720113  50.1524913  47.4026493
  19.5670113  52.4434913  56.6766493  19.6840113  51.9894913  55.9406493
  19.8550113  53.2414913  56.4736493  19.6270113  52.4944913  56.5376493
  14.6870113  63.8734913  42.7186493  15.3430113  63.2984913  42.7336493
  15.0760113  64.6224913  42.4976493  14.8420113  63.8984913  42.6886493
  30.4200113  52.9674913  43.9806493  30.0740113  53.6454913  44.4066493
  29.7840113  52.3694913  43.9966493  30.2750113  52.9794913  44.0456493
  25.7320113  65.7374913  50.0846493  26.4760113  66.1934913  50.0746493
  25.6110113  65.5234913  49.2476493  25.8240113  65.7734913  49.9596493
  15.3000113  52.0404913  55.6606493  14.5220113  51.6504913  55.5886493
  15.7910113  51.6284913  55.0696493  15.2570113  51.9214913  55.5626493
  15.5050113  62.3604913  46.2186493  15.9280113  62.0044913  45.5446493
  15.8290113  61.9384913  46.9106493  15.6150113  62.2454913  46.2216493
  18.7360113  65.2124913  45.5146493  19.5800113  65.3164913  45.3196493
  18.4390113  66.0304913  45.5826493  18.8170113  65.3484913  45.4956493
  21.9490113  49.6834913  54.8286493  22.1270113  48.8744913  54.5536493
  21.8060113  50.1244913  54.0896493  21.9540113  49.6294913  54.6786493
  22.5430113  54.6094913  43.6016493  22.8300113  54.3774913  42.8116493
  23.2750113  54.6884913  44.0706493  22.6930113  54.5864913  43.5546493
  23.2650113  54.9484913  38.7226493  23.5460113  55.7364913  38.9716493
  22.4890113  55.1134913  38.3596493  23.1920113  55.0894913  38.7056493
  27.3060113  66.9224913  40.1896493  27.9710113  66.7744913  39.6446493
  27.6660113  66.8394913  40.9796493  27.4580113  66.8884913  40.2256493
  17.7340113  66.4314913  51.2546493  18.0260113  66.3644913  52.0746493
  17.1080113  65.8264913  51.2096493  17.6850113  66.3324913  51.3696493
  30.0950113  51.2904913  49.3496493  30.8520113  51.3624913  48.9216493
  30.1580113  50.5174913  49.7486493  30.2160113  51.1874913  49.3446493
  12.6480113  52.5884913  53.2466493  12.6440113  53.1754913  53.8926493
  13.2420113  52.9004913  52.6896493  12.7350113  52.7214913  53.2596493
  24.9860113  62.9224913  53.7886493  24.9520113  63.3044913  54.5726493
  25.8400113  62.8804913  53.6176493  25.1070113  62.9724913  53.8796493
  22.1240113  63.1194913  38.5386493  21.9430113  63.6644913  39.1956493
  22.8900113  63.4094913  38.2376493  22.2100113  63.2434913  38.5916493
  25.6310113  51.0154913  39.5926493  26.1710113  50.3334913  39.6686493
  25.6930113  51.4134913  40.3666493  25.7200113  50.9734913  39.7186493
  13.5850113  52.1834913  42.1616493  13.4710113  51.3194913  42.1926493
  13.1100113  52.4774913  42.8316493  13.4980113  52.0994913  42.2646493
  15.7270113  64.5934913  50.3766493  15.0290113  64.0854913  50.5026493
  15.9870113  64.3884913  49.5686493  15.6620113  64.4884913  50.2756493
  22.8890113  53.3914913  40.9066493  22.3810113  52.7294913  40.6526493
  22.9410113  53.8954913  40.1966493  22.8220113  53.3684913  40.7646493
  23.4380113  66.0864913  51.2866493  24.2060113  66.0064913  50.8806493
  22.8550113  65.9654913  50.6486493  23.4650113  66.0564913  51.1326493
  22.8890113  50.3324913  40.7976493  22.4340113  49.9304913  40.1716493
  23.6620113  50.4874913  40.4226493  22.9360113  50.2964913  40.6496493
  29.7150113  66.6894913  44.1876493  29.2600113  67.4064913  44.3886493
  29.1010113  66.1184913  43.9456493  29.5570113  66.7114913  44.1816493
  21.4870113  52.6994913  45.3196493  21.5610113  53.2674913  44.6616493
  21.6080113  53.1914913  46.0296493  21.5150113  52.8564913  45.3276493
  26.7120113  62.5344913  43.7316493  27.4130113  62.0524913  43.9206493
  26.0520113  61.9654913  43.7766493  26.7180113  62.3794913  43.7656493
  17.0880113  63.4444913  52.9436493  17.9290113  63.5074913  52.7216493
  17.0510113  63.8414913  53.7196493  17.2070113  63.5124913  53.0256493
  16.0950113  48.5224913  43.6676493  16.6310113  49.2104913  43.6576493
  16.0980113  48.2484913  42.8396493  16.1740113  48.5834913  43.5436493
  19.0510113  58.9554913  47.6926493  19.2230113  58.7454913  48.5216493
  18.3960113  58.4214913  47.4766493  18.9800113  58.8454913  47.7836493
  25.2790113  52.8694913  51.2076493  25.1840113  53.1884913  52.0136493
  24.6860113  52.2304913  51.1696493  25.1770113  52.8214913  51.3216493
  19.8010113  58.8934913  50.2826493  19.8540113  59.7404913  50.4846493
  19.5160113  58.5234913  51.0196493  19.7670113  58.9634913  50.4206493
  25.9780113  59.5884913  49.4126493  25.4640113  59.1764913  49.9836493
  25.8520113  60.4324913  49.5936493  25.8840113  59.6524913  49.5236493
  26.5350113  48.8134913  44.0436493  26.5840113  48.4954913  44.8546493
  26.8580113  48.1694913  43.5506493  26.5900113  48.6714913  44.0906493
  12.6220113  63.2644913  56.4936493  13.3780113  63.6134913  56.7516493
  12.7990113  62.4114913  56.4366493  12.7600113  63.1894913  56.5236493
  28.9990113  53.0494913  52.3516493  29.7710113  52.8244913  52.6886493
  28.5240113  53.2664913  53.0516493  29.0430113  53.0484913  52.5046493
  16.5430113  52.3324913  45.3216493  16.8150113  51.9024913  44.6136493
  16.3670113  51.6964913  45.8926493  16.5570113  52.1754913  45.3016493
  29.2310113  60.0274913  39.5396493  29.3500113  59.7404913  40.3546493
  30.0380113  60.0484913  39.2096493  29.3670113  59.9884913  39.6116493
  16.3670113  59.7594913  44.8706493  17.2180113  59.6794913  44.6976493
  16.0100113  59.0774913  44.4586493  16.4400113  59.6464913  44.7836493
  15.1340113  66.4844913  46.1076493  14.4610113  65.9864913  45.8626493
  15.5370113  66.6694913  45.3566493  15.0940113  66.4384913  45.9606493
  14.6840113  53.4344913  48.4036493  15.5270113  53.6544913  48.3606493
  14.2950113  54.0074913  47.8726493  14.7510113  53.5514913  48.3186493
  27.1260113  56.5644913  39.1246493  26.9060113  57.2954913  38.7026493
  26.6780113  56.6154913  39.8716493  27.0270113  56.6794913  39.1726493
  18.7350113  59.7664913  43.1056493  19.4480113  60.2614913  43.1956493
  18.9570113  59.1994913  42.4796493  18.8730113  59.7554913  43.0266493
  31.3130113  51.4254913  38.5776493  30.6510113  50.8574913  38.6006493
  31.1200113  51.9374913  37.8976493  31.1870113  51.4174913  38.4806493
  12.8910113  61.4094913  46.4256493  12.2240113  61.8974913  46.7016493
  13.5710113  61.9544913  46.4546493  12.8930113  61.5614913  46.4706493
  20.5380113  55.1194913  56.5216493  20.0540113  55.6964913  56.9636493
  20.5100113  55.4144913  55.7006493  20.4620113  55.2484913  56.4656493
  31.6360113  55.8034913  51.1336493  31.8510113  55.0034913  50.8576493
  30.7860113  55.8634913  50.9446493  31.5420113  55.6944913  51.0646493
  12.9570113  58.0934913  41.5286493  12.7720113  57.2544913  41.6806493
  13.6160113  58.0574913  40.9586493  13.0270113  57.9644913  41.4666493
  29.3150113  50.9834913  40.8566493  30.0610113  50.5764913  41.0556493
  29.5780113  51.6984913  40.4316493  29.4640113  51.0294913  40.8236493
  23.2580113  63.4694913  45.4326493  22.7350113  64.1034913  45.1396493
  23.5680113  63.1054913  44.7036493  23.2260113  63.5094913  45.2816493
  13.1290113  62.2574913  41.1036493  13.6810113  62.8264913  41.4676493
  12.8970113  61.7424913  41.7686493  13.1760113  62.2654913  41.2556493
  17.3330113  61.2574913  48.1926493  17.8000113  61.5464913  48.8706493
  17.9050113  60.7794913  47.7386493  17.4870113  61.2294913  48.2256493
  25.7690113  53.2714913  45.9296493  26.1130113  53.4234913  46.7166493
  25.3160113  52.5334913  46.0426493  25.7530113  53.1844913  46.0626493
  12.9590113  60.7064913  38.7316493  13.7150113  60.2744913  38.7896493
  12.9740113  61.2384913  39.4226493  13.0730113  60.7214913  38.8426493
  13.8990113  58.9274913  46.7366493  14.3300113  58.7984913  45.9896493
  13.6940113  59.7754913  46.7106493  13.9320113  59.0334913  46.6226493
  20.2450113  52.4914913  40.3866493  20.2430113  52.3744913  39.5216493
  20.0640113  53.3394913  40.4786493  20.2180113  52.5994913  40.2726493
  29.2990113  64.9184913  51.8836493  28.6280113  65.4324913  52.1016493
  29.3620113  65.0184913  51.0196493  29.2090113  65.0094913  51.7886493
  17.9830113  62.4434913  45.0186493  18.1090113  63.2864913  45.2056493
  18.6510113  62.0444913  45.4146493  18.1010113  62.5094913  45.1046493
  16.1130113  55.9264913  54.8806493  15.5770113  55.4204913  55.3486493
  16.1330113  55.5364913  54.1006493  16.0360113  55.7934913  54.8346493
  16.5980113  55.3234913  40.0206493  16.4700113  54.8754913  40.7586493
  16.0160113  54.9814913  39.4686493  16.4930113  55.2064913  40.0486493
  16.7650113  57.1534913  46.6196493  15.9840113  57.0944913  46.2366493
  16.8370113  56.4014913  47.0566493  16.6600113  57.0344913  46.6276493
  17.1950113  56.8904913  50.0876493  17.2200113  56.2154913  49.5366493
  16.5490113  57.3864913  49.7756493  17.1040113  56.8634913  49.9606493
  27.0900113  54.6034913  48.4836493  26.4280113  54.9314913  48.9466493
  27.2770113  55.2374913  47.9146493  27.0200113  54.7454913  48.4676493
  21.2950113  65.6674913  49.4796493  21.0180113  65.0264913  48.9566493
  21.0870113  66.3934913  49.0416493  21.2240113  65.6804913  49.3376493
  23.7350113  50.5094913  51.9126493  23.8840113  49.6844913  51.6696493
  24.1140113  50.5644913  52.6966493  23.8130113  50.3954913  51.9926493
  25.2830113  52.5724913  41.9946493  25.7730113  53.2894913  41.9176493
  24.4930113  52.8334913  41.7316493  25.2390113  52.7164913  41.9446493
  14.9940113  58.2454913  55.6466493  14.9570113  58.7464913  54.9326493
  15.3250113  57.4934913  55.3516493  15.0370113  58.2074913  55.4976493
  26.5970113  60.4504913  53.9046493  27.0810113  61.1684913  54.0026493
  26.9910113  60.0234913  53.2536493  26.7270113  60.4934913  53.8226493
  20.8930113  63.2954913  55.0816493  21.2470113  63.1174913  55.8586493
  20.4570113  62.5664913  54.8826493  20.8810113  63.1614913  55.1676493
  21.8650113  54.0424913  47.7196493  22.3450113  54.7414913  47.9276493
  22.2380113  53.3954913  48.1706493  21.9910113  54.0504913  47.8166493
  24.0540113  57.2114913  39.9936493  24.0460113  57.9334913  39.5036493
  23.4150113  57.3464913  40.5706493  23.9590113  57.3384913  40.0066493
  29.0260113  61.0814913  43.9746493  29.3820113  60.7314913  44.6896493
  29.0180113  60.4204913  43.4046493  29.0780113  60.9314913  43.9956493
  25.0710113  64.1474913  47.8186493  24.4680113  63.8514913  47.2616493
  25.6160113  64.5994913  47.3096493  25.0620113  64.1704913  47.6606493
  25.0840113  60.9984913  47.2186493  24.2870113  61.2224913  47.4926493
  25.3420113  60.4044913  47.8036493  25.0040113  60.9434913  47.3456493
  18.9760113  65.8104913  41.6666493  18.8290113  65.0344913  42.0376493
  19.6650113  65.6634913  41.1516493  19.0560113  65.6734913  41.6456493
  18.6470113  49.5534913  39.6546493  18.7440113  49.4464913  40.5156493
  17.9390113  50.0594913  39.5896493  18.5570113  49.6124913  39.7726493
  21.2680113  65.3264913  40.0686493  21.8900113  65.4894913  40.6586493
  21.3040113  66.0174913  39.5366493  21.3650113  65.4524913  40.0776493
  28.3440113  58.9964913  52.0646493  28.3990113  59.1214913  51.2026493
  29.0970113  59.3164913  52.3666493  28.4630113  59.0614913  51.9816493
  24.5350113  64.3454913  56.3416493  24.6990113  64.6284913  57.1506493
  24.7980113  65.0064913  55.8366493  24.5980113  64.4854913  56.3866493
  15.7690113  57.8604913  40.8976493  16.0930113  57.0814913  40.6756493
  16.4150113  58.2284913  41.3526493  15.9120113  57.7994913  40.9316493
  24.0750113  58.8024913  51.6646493  23.9200113  59.4124913  52.2686493
  24.6090113  58.2444913  52.0706493  24.1310113  58.8104913  51.8136493
  12.7660113  49.5214913  41.8656493  12.8950113  48.8134913  41.3736493
  12.3990113  49.2034913  42.5906493  12.7310113  49.3694913  41.9006493
  22.4590113  57.2024913  42.3226493  22.5180113  57.8524913  42.9016493
  22.2700113  56.5064913  42.8136493  22.4400113  57.1954913  42.4806493
  27.6850113  61.5314913  48.1916493  27.2060113  61.8294913  47.5256493
  27.3290113  60.7554913  48.3696493  27.5620113  61.4604913  48.1196493
  16.9550113  51.7194913  38.8346493  16.4440113  51.7724913  38.1286493
  17.7390113  51.9594913  38.5386493  16.9950113  51.7624913  38.6866493
  21.6820113  59.2494913  46.7536493  20.8350113  59.0554913  46.8346493
  22.0060113  59.0844913  47.5466493  21.6040113  59.1964913  46.8826493
  18.4340113  65.9794913  37.6396493  18.8730113  65.2824913  37.9276493
  18.6410113  66.6034913  38.2126493  18.5300113  65.9684913  37.7666493
  15.5300113  58.9424913  49.0696493  16.2520113  59.4304913  49.0326493
  15.2600113  58.9124913  48.2406493  15.5970113  59.0104913  48.9416493
  18.7600113  54.1134913  45.8046493  19.6060113  53.9234913  45.9026493
  18.3900113  53.3364913  45.6666493  18.8300113  53.9704913  45.7986493
  31.3770113  65.6974913  40.1316493  32.0710113  65.2304913  39.8836493
  30.8380113  65.0994913  40.4686493  31.4000113  65.5394913  40.1446493
  13.5810113  55.4514913  42.4596493  14.0700113  55.1594913  43.1206493
  13.7100113  54.8584913  41.8326493  13.6720113  55.3204913  42.4646493
  28.6160113  58.4734913  49.3106493  28.6090113  57.6974913  49.7086493
  27.7750113  58.7074913  49.3036493  28.4910113  58.3934913  49.3686493
  18.1060113  56.8854913  37.9456493  17.4960113  56.4804913  38.4196493
  17.7200113  57.0034913  37.1726493  17.9590113  56.8424913  37.9016493
  14.9250113  59.9944913  53.3476493  14.5040113  59.4764913  52.7866493
  14.5730113  60.7804913  53.2046493  14.8110113  60.0344913  53.2436493
  29.8720113  58.5444913  46.7476493  29.5860113  58.9454913  47.4676493
  30.7320113  58.4824913  46.8746493  29.9570113  58.5944913  46.8726493
  19.5610113  55.3464913  40.6556493  19.8330113  56.1724913  40.7226493
  18.6980113  55.4214913  40.5596493  19.4740113  55.4794913  40.6506493
  13.0410113  51.3164913  47.1916493  13.0850113  51.6604913  46.3906493
  13.7960113  51.5534913  47.5586493  13.1590113  51.4024913  47.1276493
  31.0030113  64.1774913  47.2766493  31.2930113  64.4344913  46.4956493
  31.6980113  64.2734913  47.7956493  31.1490113  64.2294913  47.2376493
  28.2940113  56.3564913  53.7286493  28.6130113  57.1424913  53.9316493
  27.9240113  56.0864913  54.4716493  28.2870113  56.4324913  53.8686493
  27.6080113  62.7804913  39.2586493  27.9420113  61.9744913  39.2936493
  26.8530113  62.7084913  39.6886493  27.5460113  62.6504913  39.3276493
  28.0900113  54.6144913  44.9176493  27.3450113  54.2914913  45.2356493
  28.0920113  55.4404913  45.1976493  27.9800113  54.6884913  45.0056493
  30.9920113  56.8984913  56.4636493  30.9400113  56.5574913  55.6626493
  31.7290113  57.3654913  56.4416493  31.0930113  56.9174913  56.3416493
  30.5300113  60.5744913  52.6696493  31.1580113  60.0254913  52.4136493
  30.4690113  61.1394913  52.0076493  30.6140113  60.5774913  52.5336493
  24.9820113  60.6554913  38.6616493  25.6660113  60.1414913  38.4926493
  24.5650113  60.7014913  37.8966493  25.0210113  60.5864913  38.5236493
  19.6640113  61.8054913  49.9656493  19.3660113  62.3974913  50.5326493
  19.7190113  62.2474913  49.2166493  19.6280113  61.9584913  49.9386493
  17.6430113  60.7554913  53.3636493  16.8370113  60.4654913  53.5306493
  17.5540113  61.6234913  53.3696493  17.5110113  60.8404913  53.3886493
  27.0020113  50.9444913  52.3786493  27.7460113  51.3964913  52.3156493
  26.4360113  51.4144913  51.9096493  27.0290113  51.0814913  52.3006493
  22.1800113  58.2284913  49.4566493  22.6560113  58.6024913  50.0846493
  21.3570113  58.3624913  49.7156493  22.1290113  58.3034913  49.5876493
  18.8900113  53.8314913  52.1976493  19.0510113  53.0874913  52.6246493
  18.8450113  53.5824913  51.3626493  18.9070113  53.6844913  52.1376493
  21.4440113  65.6214913  44.6846493  21.9900113  66.3004913  44.7386493
  21.0940113  65.7034913  43.8896493  21.4730113  65.7344913  44.5746493
  28.2870113  48.9244913  50.0486493  28.0070113  49.7494913  50.0046493
  29.0030113  48.9774913  50.5446493  28.3520113  49.0544913  50.1156493
  20.6420113  49.6394913  52.0776493  21.3470113  49.9594913  51.6756493
  20.8830113  48.8324913  52.3046493  20.7810113  49.5674913  52.0516493
  19.6270113  63.8494913  48.0736493  19.0030113  64.4314913  47.8916493
  19.8750113  63.5634913  47.2876493  19.5710113  63.8934913  47.9306493
  23.9360113  60.4834913  55.0626493  24.6930113  60.7694913  54.7366493
  23.3890113  60.5354913  54.3846493  23.9670113  60.5334913  54.9136493
  27.8450113  63.0334913  53.5666493  28.1910113  63.3034913  54.3206493
  28.1390113  63.6154913  52.9866493  27.9400113  63.1594913  53.5926493
  29.7080113  55.1794913  38.9056493  30.0860113  55.8564913  38.5056493
  28.8660113  55.4034913  38.9366493  29.6390113  55.3124913  38.8506493
  21.2210113  58.6254913  37.9886493  20.4160113  58.4484913  37.7036493
  21.1880113  59.4764913  38.1806493  21.0970113  58.7244913  37.9756493
  17.1510113  54.6924913  48.1386493  17.5910113  54.5894913  47.3926493
  17.6960113  54.3794913  48.7436493  17.2960113  54.6314913  48.1176493
  24.8550113  55.3314913  50.0286493  25.1570113  55.7514913  50.7316493
  24.8910113  54.4914913  50.2606493  24.9050113  55.2694913  50.1666493
  22.2800113  65.4984913  53.9536493  22.7580113  64.8984913  53.5376493
  21.9290113  65.0554913  54.6186493  22.2990113  65.3444913  53.9906493
  27.4030113  54.7784913  42.2806493  27.6100113  54.5774913  43.1046493
  28.1590113  55.0464913  41.9386493  27.5450113  54.7884913  42.3516493
  20.6980113  49.6774913  48.1856493  19.8720113  49.5284913  48.4226493
  20.6580113  49.7124913  47.3146493  20.5700113  49.6604913  48.0916493
  28.4250113  50.8614913  43.7546493  27.7110113  50.3904913  43.9256493
  28.2630113  51.2024913  42.9686493  28.2960113  50.8424913  43.6636493
  28.8680113  58.8054913  42.1346493  29.3440113  58.0764913  42.0866493
  28.0470113  58.5194913  42.0586493  28.8170113  58.6554913  42.1156493
  22.3390113  60.7174913  52.9736493  21.5440113  60.6534913  53.3246493
  22.4100113  61.5644913  52.7786493  22.2320113  60.8324913  52.9966493
  13.2630113  50.0754913  54.2206493  13.1230113  50.8704913  53.8896493
  12.4770113  49.8324913  54.5096493  13.1260113  50.1574913  54.2146493
  18.1690113  66.9244913  48.2906493  18.1800113  66.9834913  49.1606493
  17.7440113  66.1774913  48.1406493  18.1080113  66.8224913  48.3966493
  16.3270113  52.8194913  41.4456493  16.4530113  52.4904913  40.6476493
  15.5150113  52.5704913  41.6446493  16.2260113  52.7344913  41.3576493
  25.0840113  59.9724913  44.4896493  25.1600113  60.3134913  45.2886493
  25.2530113  59.1254913  44.6106493  25.1200113  59.8974913  44.6256493
  22.6060113  59.2464913  44.0546493  22.3080113  58.9314913  44.8116493
  23.3010113  59.7194913  44.2896493  22.6650113  59.2694913  44.2016493
  22.8280113  63.3644913  52.0816493  23.5150113  63.2504913  52.6066493
  22.9620113  64.1554913  51.7376493  22.9490113  63.4644913  52.1086493
  31.0040113  55.9734913  53.8926493  30.1490113  55.8514913  54.0186493
  31.1570113  55.5784913  53.1296493  30.9000113  55.8964913  53.7986493
  25.5170113  56.6384913  52.4686493  25.2620113  55.9194913  52.8906493
  26.3380113  56.7544913  52.7386493  25.6010113  56.5494913  52.5706493
  14.9330113  66.4224913  53.7326493  14.2790113  65.8534913  53.8306493
  14.5580113  67.1954913  53.8836493  14.7810113  66.4524913  53.7696493
  23.4510113  57.8284913  55.6556493  23.7740113  58.5144913  55.2236493
  22.7470113  58.1514913  56.0576493  23.3940113  57.9774913  55.6506493
  26.5350113  66.2024913  46.5846493  26.0840113  66.8454913  46.9636493
  27.2430113  66.1234913  47.0896493  26.5730113  66.2854913  46.7156493
  23.2360113  61.2924913  49.5146493  22.5420113  61.6944913  49.8576493
  23.9130113  61.7254913  49.8536493  23.2330113  61.4154913  49.6156493
  28.6130113  63.8854913  56.0946493  29.3890113  63.4954913  56.1776493
  28.1440113  63.5494913  56.7496493  28.6580113  63.7784913  56.2036493
  16.3040113  54.8304913  51.8616493  16.6790113  55.4494913  51.3746493
  16.9780113  54.3564913  52.1466493  16.4590113  54.8524913  51.8316493
  14.0790113  53.2784913  51.1366493  14.1560113  53.1094913  50.2836493
  14.8250113  53.6844913  51.3336493  14.2000113  53.3134913  51.0396493
  29.6380113  55.9184913  41.5766493  29.7410113  55.8604913  40.7126493
  30.3790113  55.5864913  41.8946493  29.7630113  55.8614913  41.4956493
  16.6330113  50.6884913  53.5476493  16.5520113  49.8444913  53.7536493
  16.3190113  50.7324913  52.7346493  16.5750113  50.5704913  53.4576493
  23.5580113  62.8834913  42.6836493  23.3530113  63.7164913  42.5246493
  22.7830113  62.5014913  42.8056493  23.4130113  62.9504913  42.6786493
  28.7400113  56.0644913  50.9326493  28.7380113  55.2014913  51.0566493
  28.8070113  56.3884913  51.7396493  28.7500113  55.9844913  51.0696493
  13.4760113  58.5044913  51.3606493  13.7960113  58.7234913  50.5796493
  13.3760113  57.6394913  51.3056493  13.5080113  58.4094913  51.2376493
  14.9320113  54.4404913  37.9786493  14.2600113  54.4544913  38.5346493
  15.0270113  53.5924913  37.7946493  14.8470113  54.3174913  38.0336493
  23.6130113  51.0544913  45.5686493  22.9130113  51.5724913  45.5126493
  23.6510113  50.6744913  44.7846493  23.5150113  51.0754913  45.4446493
  18.9200113  63.1454913  39.0926493  19.3610113  63.2254913  39.8406493
  18.1150113  62.9294913  39.3506493  18.8660113  63.1254913  39.2416493
  27.2110113  51.5704913  48.3686493  28.0660113  51.6694913  48.5136493
  26.8420113  52.1234913  48.9336493  27.2830113  51.6674913  48.4736493
  18.2390113  57.7964913  52.7456493  17.8430113  58.5704913  52.8206493
  17.8330113  57.4234913  52.0696493  18.1210113  57.8554913  52.6566493
  27.5150113  56.8504913  46.8596493  28.1810113  57.3914913  47.0196493
  27.1700113  57.1614913  46.1206493  27.5620113  56.9764913  46.7746493
  27.8280113  64.9164913  42.6666493  27.6540113  64.2624913  43.2166493
  28.5410113  64.6454913  42.2436493  27.9080113  64.7794913  42.6856493
  16.2490113  62.2154913  39.6936493  16.0050113  61.9084913  40.4736493
  16.2160113  61.5124913  39.1776493  16.2080113  62.0664913  39.7326493
  19.0680113  60.4604913  38.4366493  18.2500113  60.1924913  38.5766493
  19.0400113  61.3124913  38.6216493  18.9430113  60.5474913  38.4846493
  18.6680113  50.7734913  50.1956493  17.8040113  50.8574913  50.2756493
  18.8880113  50.2594913  50.8646493  18.5730113  50.7104913  50.3066493
  30.6860113  49.4084913  51.5246493  30.6340113  49.3644913  52.3946493
  31.3730113  48.9054913  51.3346493  30.7800113  49.3284913  51.6246493
  22.7710113  51.5214913  48.5696493  22.0340113  51.0674913  48.6826493
  23.3420113  51.1194913  49.0926493  22.7460113  51.3944913  48.6636493
  25.5030113  62.3694913  50.3576493  25.7090113  62.6704913  51.1496493
  25.4420113  63.0914913  49.8726493  25.5240113  62.5204913  50.4026493
  25.0370113  66.5834913  54.6036493  24.2840113  66.5654913  54.1626493
  25.2050113  67.4354913  54.6876493  24.9510113  66.7064913  54.5506493
  20.2740113  55.8504913  53.7736493  19.9520113  55.2744913  53.2036493
  19.9150113  56.6054913  53.5276493  20.1740113  55.8764913  53.6536493
  21.0700113  49.1024913  38.4006493  21.1480113  49.3494913  37.5676493
  20.3270113  49.4794913  38.6586493  20.9720113  49.1944913  38.3156493
  30.3150113  61.0084913  49.8156493  30.2830113  60.1464913  49.6806493
  29.6220113  61.3104913  49.3816493  30.2080113  60.9254913  49.7316493
  18.7090113  66.2064913  54.0216493  18.7500113  66.3324913  54.8846493
  19.3600113  65.6464913  53.8656493  18.8110113  66.1424913  54.1266493
  28.4200113  64.2684913  48.6126493  28.9470113  64.1854913  47.9216493
  28.0290113  63.4904913  48.6666493  28.4400113  64.1414913  48.5186493
  15.8880113  50.8564913  50.8436493  15.5450113  50.0894913  50.6096493
  15.1930113  51.3804913  50.9076493  15.7350113  50.8204913  50.8186493
  24.9340113  49.7124913  47.8206493  25.6040113  50.2564913  47.9476493
  24.4310113  50.1364913  47.2476493  24.9590113  49.8554913  47.7546493
  16.3020113  64.5894913  55.3816493  16.8970113  65.0204913  55.8536493
  15.9380113  65.2134913  54.8926493  16.3360113  64.7454913  55.3786493
  24.2930113  55.5204913  45.3136493  24.8440113  54.9134913  45.6136493
  23.8680113  55.7834913  46.0286493  24.3120113  55.4694913  45.4626493
  14.5410113  54.1704913  44.7996493  14.1730113  54.4724913  45.5306493
  15.0750113  53.5414913  45.0836493  14.5650113  54.1224913  44.9496493
  14.2290113  62.5784913  52.3106493  13.6550113  62.9944913  52.8196493
  14.9620113  63.0434913  52.4056493  14.2530113  62.7084913  52.3996493
  26.2630113  57.3514913  41.8756493  26.3310113  56.5014913  42.0566493
  25.4400113  57.4374913  41.5976493  26.1510113  57.2384913  41.8616493
  16.0150113  65.8454913  41.0856493  15.8700113  66.0014913  40.2396493
  16.8810113  65.9244913  41.1636493  16.1220113  65.8804913  40.9726493
  20.1820113  58.2424913  40.8136493  20.2820113  58.3814913  39.9586493
  21.0000113  58.1824913  41.1096493  20.3170113  58.2534913  40.7306493
  29.3420113  66.3064913  38.2936493  29.9790113  66.1724913  38.8746493
  29.0010113  65.5124913  38.1766493  29.3860113  66.1694913  38.3616493
  29.5370113  58.7244913  55.0266493  30.1710113  58.5544913  55.6006493
  29.9540113  59.1274913  54.3746493  29.6920113  58.7594913  55.0156493
  25.4170113  62.5714913  40.6156493  25.1660113  62.4434913  41.4416493
  25.1000113  61.8764913  40.1946493  25.3330113  62.4504913  40.6756493
  30.0610113  54.2294913  48.7356493  29.2280113  54.4794913  48.6636493
  30.0050113  53.3894913  48.9646493  29.9300113  54.1424913  48.7586493
  19.3210113  51.2174913  53.9296493  19.5550113  50.6414913  53.3166493
  18.4790113  51.0364913  54.0706493  19.2310113  51.1054913  53.8596493
  26.9480113  58.8354913  56.3816493  27.8190113  58.7994913  56.3456493
  26.7290113  59.2554913  55.6496493  27.0450113  58.8914913  56.2686493
  16.7020113  64.6604913  47.5626493  16.6230113  63.8504913  47.2466493
  16.2580113  65.1474913  46.9906493  16.6250113  64.6124913  47.4316493
  22.3030113  60.7794913  40.0456493  23.0200113  60.4324913  39.6896493
  22.2690113  61.5794913  39.6976493  22.4040113  60.8464913  39.9416493
  14.2740113  66.9044913  51.1436493  14.7670113  66.8484913  51.8616493
  14.4620113  66.1714913  50.7086493  14.3750113  66.7874913  51.1856493
  23.7120113  49.4204913  24.2844083  23.4670113  49.9084913  23.6044083
  24.5750113  49.3474913  24.1844083  23.8030113  49.4814913  24.1694083
  23.5210113  56.3364913  28.9554083  22.9970113  56.9324913  29.3184083
  23.9180113  55.9684913  29.6394083  23.5020113  56.3704913  29.1104083
  13.3900113  60.4764913  24.4114083  12.9490113  60.5944913  25.1544083
  13.1070113  59.7014913  24.1264083  13.2830113  60.3794913  24.4794083
  29.6650113  63.7774913  21.9264083  30.3660113  63.2584913  21.9224083
  29.0780113  63.3324913  21.4574083  29.6820113  63.6344913  21.8564083
  13.1330113  54.2684913  20.9184083  12.3550113  54.4304913  20.5584083
  13.1720113  53.3974913  20.9404083  13.0240113  54.1634913  20.8684083
  16.2720113  59.5314913  19.5904083  15.8800113  59.1604913  18.9044083
  16.1920113  58.9334913  20.2194083  16.2020113  59.3884913  19.5814083
  26.1920113  57.4034913  25.6314083  26.2720113  57.4074913  24.7624083
  25.6080113  56.7714913  25.7804083  26.1170113  57.3104913  25.5254083
  15.8990113  61.1724913  23.4904083  16.5070113  61.0024913  24.0934083
  15.1480113  61.0324913  23.9114083  15.8780113  61.1264913  23.6414083
  20.1810113  50.5074913  23.4394083  20.1110113  51.1844913  22.8934083
  20.9220113  50.1194913  23.1904083  20.2800113  50.5504913  23.3214083
  14.7900113  64.2634913  19.5674083  15.2570113  64.3474913  18.8354083
  15.2450113  63.6854913  20.0364083  14.9260113  64.1904913  19.5284083
  13.3300113  63.2114913  30.6664083  13.4590113  62.9314913  31.4824083
  12.7200113  62.6704913  30.3574083  13.2590113  63.0904913  30.7414083
  19.9040113  60.7364913  35.7334083  19.6680113  60.7334913  36.5734083
  19.1560113  60.5884913  35.3094083  19.7580113  60.7134913  35.7944083
  14.7760113  57.7324913  24.8684083  14.3140113  57.3404913  24.2414083
  15.4760113  57.2194913  24.9604083  14.8110113  57.5994913  24.7894083
  19.2840113  53.3424913  30.2154083  19.9620113  53.3604913  29.6664083
  19.2390113  52.5064913  30.4604083  19.3770113  53.2214913  30.1704083
  19.8860113  63.9284913  32.9964083  20.0240113  64.6884913  32.5894083
  20.6770113  63.5634913  33.0234083  20.0230113  63.9874913  32.9404083
  16.7770113  55.8324913  24.8914083  17.5940113  55.6454913  25.1344083
  16.3000113  55.2184913  25.2874083  16.8270113  55.7144913  24.9864083
  20.9810113  61.8134913  27.5014083  21.3290113  61.0144913  27.5314083
  21.6460113  62.3174913  27.2464083  21.1310113  61.7694913  27.4684083
  21.0380113  61.2624913  23.7124083  21.3690113  60.6184913  24.1984083
  21.2780113  61.0514913  22.9014083  21.1220113  61.1364913  23.6644083
  23.0060113  55.3934913  35.0514083  22.1580113  55.2944913  34.8734083
  23.0350113  56.1384913  35.5054083  22.8850113  55.4894913  35.0924083
  17.3740113  50.9264913  24.1574083  17.0780113  51.4274913  23.5074083
  18.2410113  51.0044913  24.1004083  17.4580113  51.0124913  24.0534083
  20.3530113  50.0684913  26.3804083  20.4260113  50.9284913  26.5094083
  20.3150113  49.9934913  25.5124083  20.3580113  50.1844913  26.2714083
  25.0260113  52.9944913  18.6794083  24.5760113  53.6754913  18.9864083
  25.1400113  52.4904913  19.3824083  24.9770113  53.0204913  18.8284083
  13.2320113  55.4934913  27.8814083  12.9760113  56.3244913  27.8064083
  12.5680113  55.1104913  28.2984083  13.0960113  55.5594913  27.9324083
  13.1420113  65.2034913  25.7814083  12.5500113  65.7614913  25.4684083
  13.5680113  64.9344913  25.0694083  13.1180113  65.2454913  25.6304083
  18.9820113  63.0474913  23.2614083  18.4030113  62.7724913  23.8534083
  19.6060113  62.4384913  23.2864083  18.9890113  62.9174913  23.3524083
  25.1250113  65.3354913  20.7834083  25.8520113  65.8074913  20.8854083
  25.3540113  64.5414913  21.0634083  25.2670113  65.2884913  20.8404083
  23.2930113  65.7274913  22.7734083  23.5070113  66.2544913  23.4354083
  24.0600113  65.5534913  22.3944083  23.4380113  65.7794913  22.8154083
  16.2610113  50.3104913  28.3724083  15.7400113  49.6824913  28.0644083
  16.8520113  49.8734913  28.8434083  16.2720113  50.1524913  28.3964083
  19.5670113  52.4434913  37.6704083  19.6840113  51.9894913  36.9344083
  19.8550113  53.2414913  37.4674083  19.6270113  52.4944913  37.5314083
  14.6870113  63.8734913  23.7124083  15.3430113  63.2984913  23.7274083
  15.0760113  64.6224913  23.4914083  14.8420113  63.8984913  23.6824083
  30.4200113  52.9674913  24.9744083  30.0740113  53.6454913  25.4004083
  29.7840113  52.3694913  24.9904083  30.2750113  52.9794913  25.0394083
  25.7320113  65.7374913  31.0784083  26.4760113  66.1934913  31.0684083
  25.6110113  65.5234913  30.2414083  25.8240113  65.7734913  30.9534083
  15.3000113  52.0404913  36.6544083  14.5220113  51.6504913  36.5824083
  15.7910113  51.6284913  36.0634083  15.2570113  51.9214913  36.5564083
  15.5050113  62.3604913  27.2124083  15.9280113  62.0044913  26.5384083
  15.8290113  61.9384913  27.9044083  15.6150113  62.2454913  27.2154083
  18.7360113  65.2124913  26.5084083  19.5800113  65.3164913  26.3134083
  18.4390113  66.0304913  26.5764083  18.8170113  65.3484913  26.4894083
  21.9490113  49.6834913  35.8224083  22.1270113  48.8744913  35.5474083
  21.8060113  50.1244913  35.0834083  21.9540113  49.6294913  35.6724083
  22.5430113  54.6094913  24.5954083  22.8300113  54.3774913  23.8054083
  23.2750113  54.6884913  25.0644083  22.6930113  54.5864913  24.5484083
  23.2650113  54.9484913  19.7164083  23.5460113  55.7364913  19.9654083
  22.4890113  55.1134913  19.3534083  23.1920113  55.0894913  19.6994083
  27.3060113  66.9224913  21.1834083  27.9710113  66.7744913  20.6384083
  27.6660113  66.8394913  21.9734083  27.4580113  66.8884913  21.2194083
  17.7340113  66.4314913  32.2484083  18.0260113  66.3644913  33.0684083
  17.1080113  65.8264913  32.2034083  17.6850113  66.3324913  32.3634083
  12.6480113  52.5884913  34.2404083  12.6440113  53.1754913  34.8864083
  13.2420113  52.9004913  33.6834083  12.7350113  52.7214913  34.2534083
  24.9860113  62.9224913  34.7824083  24.9520113  63.3044913  35.5664083
  25.8400113  62.8804913  34.6114083  25.1070113  62.9724913  34.8734083
  22.1240113  63.1194913  19.5324083  21.9430113  63.6644913  20.1894083
  22.8900113  63.4094913  19.2314083  22.2100113  63.2434913  19.5854083
  13.5850113  52.1834913  23.1554083  13.4710113  51.3194913  23.1864083
  13.1100113  52.4774913  23.8254083  13.4980113  52.0994913  23.2584083
  15.7270113  64.5934913  31.3704083  15.0290113  64.0854913  31.4964083
  15.9870113  64.3884913  30.5624083  15.6620113  64.4884913  31.2694083
  22.8890113  53.3914913  21.9004083  22.3810113  52.7294913  21.6464083
  22.9410113  53.8954913  21.1904083  22.8220113  53.3684913  21.7584083
  23.4380113  66.0864913  32.2804083  24.2060113  66.0064913  31.8744083
  22.8550113  65.9654913  31.6424083  23.4650113  66.0564913  32.1264083
  22.8890113  50.3324913  21.7914083  22.4340113  49.9304913  21.1654083
  23.6620113  50.4874913  21.4164083  22.9360113  50.2964913  21.6434083
  29.7150113  66.6894913  25.1814083  29.2600113  67.4064913  25.3824083
  29.1010113  66.1184913  24.9394083  29.5570113  66.7114913  25.1754083
  21.4870113  52.6994913  26.3134083  21.5610113  53.2674913  25.6554083
  21.6080113  53.1914913  27.0234083  21.5150113  52.8564913  26.3214083
  26.7120113  62.5344913  24.7254083  27.4130113  62.0524913  24.9144083
  26.0520113  61.9654913  24.7704083  26.7180113  62.3794913  24.7594083
  17.0880113  63.4444913  33.9374083  17.9290113  63.5074913  33.7154083
  17.0510113  63.8414913  34.7134083  17.2070113  63.5124913  34.0194083
  16.0950113  48.5224913  24.6614083  16.6310113  49.2104913  24.6514083
  16.0980113  48.2484913  23.8334083  16.1740113  48.5834913  24.5374083
  19.0510113  58.9554913  28.6864083  19.2230113  58.7454913  29.5154083
  18.3960113  58.4214913  28.4704083  18.9800113  58.8454913  28.7774083
  25.2790113  52.8694913  32.2014083  25.1840113  53.1884913  33.0074083
  24.6860113  52.2304913  32.1634083  25.1770113  52.8214913  32.3154083
  19.8010113  58.8934913  31.2764083  19.8540113  59.7404913  31.4784083
  19.5160113  58.5234913  32.0134083  19.7670113  58.9634913  31.4144083
  25.9780113  59.5884913  30.4064083  25.4640113  59.1764913  30.9774083
  25.8520113  60.4324913  30.5874083  25.8840113  59.6524913  30.5174083
  26.5350113  48.8134913  25.0374083  26.5840113  48.4954913  25.8484083
  26.8580113  48.1694913  24.5444083  26.5900113  48.6714913  25.0844083
  12.6220113  63.2644913  37.4874083  13.3780113  63.6134913  37.7454083
  12.7990113  62.4114913  37.4304083  12.7600113  63.1894913  37.5174083
  28.9990113  53.0494913  33.3454083  29.7710113  52.8244913  33.6824083
  28.5240113  53.2664913  34.0454083  29.0430113  53.0484913  33.4984083
  16.5430113  52.3324913  26.3154083  16.8150113  51.9024913  25.6074083
  16.3670113  51.6964913  26.8864083  16.5570113  52.1754913  26.2954083
  29.2310113  60.0274913  20.5334083  29.3500113  59.7404913  21.3484083
  30.0380113  60.0484913  20.2034083  29.3670113  59.9884913  20.6054083
  16.3670113  59.7594913  25.8644083  17.2180113  59.6794913  25.6914083
  16.0100113  59.0774913  25.4524083  16.4400113  59.6464913  25.7774083
  15.1340113  66.4844913  27.1014083  14.4610113  65.9864913  26.8564083
  15.5370113  66.6694913  26.3504083  15.0940113  66.4384913  26.9544083
  14.6840113  53.4344913  29.3974083  15.5270113  53.6544913  29.3544083
  14.2950113  54.0074913  28.8664083  14.7510113  53.5514913  29.3124083
  31.4650113  64.5364913  34.7874083  30.7830113  64.8464913  34.3404083
  31.0960113  64.0784913  35.4324083  31.3090113  64.5144913  34.8164083
  27.1260113  56.5644913  20.1184083  26.9060113  57.2954913  19.6964083
  26.6780113  56.6154913  20.8654083  27.0270113  56.6794913  20.1664083
  18.7350113  59.7664913  24.0994083  19.4480113  60.2614913  24.1894083
  18.9570113  59.1994913  23.4734083  18.8730113  59.7554913  24.0204083
  31.3130113  51.4254913  19.5714083  30.6510113  50.8574913  19.5944083
  31.1200113  51.9374913  18.8914083  31.1870113  51.4174913  19.4744083
  12.8910113  61.4094913  27.4194083  12.2240113  61.8974913  27.6954083
  13.5710113  61.9544913  27.4484083  12.8930113  61.5614913  27.4644083
  20.5380113  55.1194913  37.5154083  20.0540113  55.6964913  37.9574083
  20.5100113  55.4144913  36.6944083  20.4620113  55.2484913  37.4594083
  31.6360113  55.8034913  32.1274083  31.8510113  55.0034913  31.8514083
  30.7860113  55.8634913  31.9384083  31.5420113  55.6944913  32.0584083
  12.9570113  58.0934913  22.5224083  12.7720113  57.2544913  22.6744083
  13.6160113  58.0574913  21.9524083  13.0270113  57.9644913  22.4604083
  29.3150113  50.9834913  21.8504083  30.0610113  50.5764913  22.0494083
  29.5780113  51.6984913  21.4254083  29.4640113  51.0294913  21.8174083
  23.2580113  63.4694913  26.4264083  22.7350113  64.1034913  26.1334083
  23.5680113  63.1054913  25.6974083  23.2260113  63.5094913  26.2754083
  13.1290113  62.2574913  22.0974083  13.6810113  62.8264913  22.4614083
  12.8970113  61.7424913  22.7624083  13.1760113  62.2654913  22.2494083
  17.3330113  61.2574913  29.1864083  17.8000113  61.5464913  29.8644083
  17.9050113  60.7794913  28.7324083  17.4870113  61.2294913  29.2194083
  25.7690113  53.2714913  26.9234083  26.1130113  53.4234913  27.7104083
  25.3160113  52.5334913  27.0364083  25.7530113  53.1844913  27.0564083
  12.9590113  60.7064913  19.7254083  13.7150113  60.2744913  19.7834083
  12.9740113  61.2384913  20.4164083  13.0730113  60.7214913  19.8364083
  13.8990113  58.9274913  27.7304083  14.3300113  58.7984913  26.9834083
  13.6940113  59.7754913  27.7044083  13.9320113  59.0334913  27.6164083
  20.2450113  52.4914913  21.3804083  20.2430113  52.3744913  20.5154083
  20.0640113  53.3394913  21.4724083  20.2180113  52.5994913  21.2664083
  29.2990113  64.9184913  32.8774083  28.6280113  65.4324913  33.0954083
  29.3620113  65.0184913  32.0134083  29.2090113  65.0094913  32.7824083
  17.9830113  62.4434913  26.0124083  18.1090113  63.2864913  26.1994083
  18.6510113  62.0444913  26.4084083  18.1010113  62.5094913  26.0984083
  16.1130113  55.9264913  35.8744083  15.5770113  55.4204913  36.3424083
  16.1330113  55.5364913  35.0944083  16.0360113  55.7934913  35.8284083
  16.5980113  55.3234913  21.0144083  16.4700113  54.8754913  21.7524083
  16.0160113  54.9814913  20.4624083  16.4930113  55.2064913  21.0424083
  16.7650113  57.1534913  27.6134083  15.9840113  57.0944913  27.2304083
  16.8370113  56.4014913  28.0504083  16.6600113  57.0344913  27.6214083
  17.1950113  56.8904913  31.0814083  17.2200113  56.2154913  30.5304083
  16.5490113  57.3864913  30.7694083  17.1040113  56.8634913  30.9544083
  27.0900113  54.6034913  29.4774083  26.4280113  54.9314913  29.9404083
  27.2770113  55.2374913  28.9084083  27.0200113  54.7454913  29.4614083
  21.2950113  65.6674913  30.4734083  21.0180113  65.0264913  29.9504083
  21.0870113  66.3934913  30.0354083  21.2240113  65.6804913  30.3314083
  23.7350113  50.5094913  32.9064083  23.8840113  49.6844913  32.6634083
  24.1140113  50.5644913  33.6904083  23.8130113  50.3954913  32.9864083
  25.2830113  52.5724913  22.9884083  25.7730113  53.2894913  22.9114083
  24.4930113  52.8334913  22.7254083  25.2390113  52.7164913  22.9384083
  14.9940113  58.2454913  36.6404083  14.9570113  58.7464913  35.9264083
  15.3250113  57.4934913  36.3454083  15.0370113  58.2074913  36.4914083
  26.5970113  60.4504913  34.8984083  27.0810113  61.1684913  34.9964083
  26.9910113  60.0234913  34.2474083  26.7270113  60.4934913  34.8164083
  20.8930113  63.2954913  36.0754083  21.2470113  63.1174913  36.8524083
  20.4570113  62.5664913  35.8764083  20.8810113  63.1614913  36.1614083
  21.8650113  54.0424913  28.7134083  22.3450113  54.7414913  28.9214083
  22.2380113  53.3954913  29.1644083  21.9910113  54.0504913  28.8104083
  24.0540113  57.2114913  20.9874083  24.0460113  57.9334913  20.4974083
  23.4150113  57.3464913  21.5644083  23.9590113  57.3384913  21.0004083
  29.0260113  61.0814913  24.9684083  29.3820113  60.7314913  25.6834083
  29.0180113  60.4204913  24.3984083  29.0780113  60.9314913  24.9894083
  25.0710113  64.1474913  28.8124083  24.4680113  63.8514913  28.2554083
  25.6160113  64.5994913  28.3034083  25.0620113  64.1704913  28.6544083
  25.0840113  60.9984913  28.2124083  24.2870113  61.2224913  28.4864083
  25.3420113  60.4044913  28.7974083  25.0040113  60.9434913  28.3394083
  18.9760113  65.8104913  22.6604083  18.8290113  65.0344913  23.0314083
  19.6650113  65.6634913  22.1454083  19.0560113  65.6734913  22.6394083
  18.6470113  49.5534913  20.6484083  18.7440113  49.4464913  21.5094083
  17.9390113  50.0594913  20.5834083  18.5570113  49.6124913  20.7664083
  21.2680113  65.3264913  21.0624083  21.8900113  65.4894913  21.6524083
  21.3040113  66.0174913  20.5304083  21.3650113  65.4524913  21.0714083
  24.5350113  64.3454913  37.3354083  24.6990113  64.6284913  38.1444083
  24.7980113  65.0064913  36.8304083  24.5980113  64.4854913  37.3804083
  29.3760113  49.2944913  36.0454083  28.7390113  48.8944913  35.6034083
  29.4020113  48.8634913  36.8034083  29.2860113  49.1724913  36.0914083
  15.7690113  57.8604913  21.8914083  16.0930113  57.0814913  21.6694083
  16.4150113  58.2284913  22.3464083  15.9120113  57.7994913  21.9254083
  24.0750113  58.8024913  32.6584083  23.9200113  59.4124913  33.2624083
  24.6090113  58.2444913  33.0644083  24.1310113  58.8104913  32.8074083
  12.7660113  49.5214913  22.8594083  12.8950113  48.8134913  22.3674083
  12.3990113  49.2034913  23.5844083  12.7310113  49.3694913  22.8944083
  22.4590113  57.2024913  23.3164083  22.5180113  57.8524913  23.8954083
  22.2700113  56.5064913  23.8074083  22.4400113  57.1954913  23.4744083
  27.6850113  61.5314913  29.1854083  27.2060113  61.8294913  28.5194083
  27.3290113  60.7554913  29.3634083  27.5620113  61.4604913  29.1134083
  21.6820113  59.2494913  27.7474083  20.8350113  59.0554913  27.8284083
  22.0060113  59.0844913  28.5404083  21.6040113  59.1964913  27.8764083
  18.4340113  65.9794913  18.6334083  18.8730113  65.2824913  18.9214083
  18.6410113  66.6034913  19.2064083  18.5300113  65.9684913  18.7604083
  15.5300113  58.9424913  30.0634083  16.2520113  59.4304913  30.0264083
  15.2600113  58.9124913  29.2344083  15.5970113  59.0104913  29.9354083
  18.7600113  54.1134913  26.7984083  19.6060113  53.9234913  26.8964083
  18.3900113  53.3364913  26.6604083  18.8300113  53.9704913  26.7924083
  31.3770113  65.6974913  21.1254083  32.0710113  65.2304913  20.8774083
  30.8380113  65.0994913  21.4624083  31.4000113  65.5394913  21.1384083
  13.5810113  55.4514913  23.4534083  14.0700113  55.1594913  24.1144083
  13.7100113  54.8584913  22.8264083  13.6720113  55.3204913  23.4584083
  28.6160113  58.4734913  30.3044083  28.6090113  57.6974913  30.7024083
  27.7750113  58.7074913  30.2974083  28.4910113  58.3934913  30.3624083
  18.1060113  56.8854913  18.9394083  17.4960113  56.4804913  19.4134083
  17.7200113  57.0034913  18.1664083  17.9590113  56.8424913  18.8954083
  14.9250113  59.9944913  34.3414083  14.5040113  59.4764913  33.7804083
  14.5730113  60.7804913  34.1984083  14.8110113  60.0344913  34.2374083
  29.8720113  58.5444913  27.7414083  29.5860113  58.9454913  28.4614083
  30.7320113  58.4824913  27.8684083  29.9570113  58.5944913  27.8664083
  19.5610113  55.3464913  21.6494083  19.8330113  56.1724913  21.7164083
  18.6980113  55.4214913  21.5534083  19.4740113  55.4794913  21.6444083
  27.5340113  52.4684913  36.2814083  27.0090113  52.9274913  36.8054083
  27.1730113  51.6734913  36.2754083  27.4030113  52.4184913  36.3574083
  13.0410113  51.3164913  28.1854083  13.0850113  51.6604913  27.3844083
  13.7960113  51.5534913  28.5524083  13.1590113  51.4024913  28.1214083
  31.0030113  64.1774913  28.2704083  31.2930113  64.4344913  27.4894083
  31.6980113  64.2734913  28.7894083  31.1490113  64.2294913  28.2314083
  26.0260113  56.0374913  36.3574083  26.0990113  56.1414913  37.2204083
  25.3920113  56.5954913  36.1364083  25.9430113  56.1354913  36.4524083
  28.2940113  56.3564913  34.7224083  28.6130113  57.1424913  34.9254083
  27.9240113  56.0864913  35.4654083  28.2870113  56.4324913  34.8624083
  27.6080113  62.7804913  20.2524083  27.9420113  61.9744913  20.2874083
  26.8530113  62.7084913  20.6824083  27.5460113  62.6504913  20.3214083
  28.0900113  54.6144913  25.9114083  27.3450113  54.2914913  26.2294083
  28.0920113  55.4404913  26.1914083  27.9800113  54.6884913  25.9994083
  30.9920113  56.8984913  37.4574083  30.9400113  56.5574913  36.6564083
  31.7290113  57.3654913  37.4354083  31.0930113  56.9174913  37.3354083
  24.9820113  60.6554913  19.6554083  25.6660113  60.1414913  19.4864083
  24.5650113  60.7014913  18.8904083  25.0210113  60.5864913  19.5174083
  19.6640113  61.8054913  30.9594083  19.3660113  62.3974913  31.5264083
  19.7190113  62.2474913  30.2104083  19.6280113  61.9584913  30.9324083
  17.6430113  60.7554913  34.3574083  16.8370113  60.4654913  34.5244083
  17.5540113  61.6234913  34.3634083  17.5110113  60.8404913  34.3824083
  27.0020113  50.9444913  33.3724083  27.7460113  51.3964913  33.3094083
  26.4360113  51.4144913  32.9034083  27.0290113  51.0814913  33.2944083
  22.1800113  58.2284913  30.4504083  22.6560113  58.6024913  31.0784083
  21.3570113  58.3624913  30.7094083  22.1290113  58.3034913  30.5814083
  18.8900113  53.8314913  33.1914083  19.0510113  53.0874913  33.6184083
  18.8450113  53.5824913  32.3564083  18.9070113  53.6844913  33.1314083
  21.4440113  65.6214913  25.6784083  21.9900113  66.3004913  25.7324083
  21.0940113  65.7034913  24.8834083  21.4730113  65.7344913  25.5684083
  20.6420113  49.6394913  33.0714083  21.3470113  49.9594913  32.6694083
  20.8830113  48.8324913  33.2984083  20.7810113  49.5674913  33.0454083
  19.6270113  63.8494913  29.0674083  19.0030113  64.4314913  28.8854083
  19.8750113  63.5634913  28.2814083  19.5710113  63.8934913  28.9244083
  23.9360113  60.4834913  36.0564083  24.6930113  60.7694913  35.7304083
  23.3890113  60.5354913  35.3784083  23.9670113  60.5334913  35.9074083
  27.8450113  63.0334913  34.5604083  28.1910113  63.3034913  35.3144083
  28.1390113  63.6154913  33.9804083  27.9400113  63.1594913  34.5864083
  29.7080113  55.1794913  19.8994083  30.0860113  55.8564913  19.4994083
  28.8660113  55.4034913  19.9304083  29.6390113  55.3124913  19.8444083
  21.2210113  58.6254913  18.9824083  20.4160113  58.4484913  18.6974083
  21.1880113  59.4764913  19.1744083  21.0970113  58.7244913  18.9694083
  17.1510113  54.6924913  29.1324083  17.5910113  54.5894913  28.3864083
  17.6960113  54.3794913  29.7374083  17.2960113  54.6314913  29.1114083
  25.1670113  53.7944913  34.7244083  24.5190113  54.2644913  35.0724083
  25.7320113  53.7054913  35.3834083  25.1550113  53.8504913  34.8734083
  24.8550113  55.3314913  31.0224083  25.1570113  55.7514913  31.7254083
  24.8910113  54.4914913  31.2544083  24.9050113  55.2694913  31.1604083
  22.2800113  65.4984913  34.9474083  22.7580113  64.8984913  34.5314083
  21.9290113  65.0554913  35.6124083  22.2990113  65.3444913  34.9844083
  27.4030113  54.7784913  23.2744083  27.6100113  54.5774913  24.0984083
  28.1590113  55.0464913  22.9324083  27.5450113  54.7884913  23.3454083
  20.6980113  49.6774913  29.1794083  19.8720113  49.5284913  29.4164083
  20.6580113  49.7124913  28.3084083  20.5700113  49.6604913  29.0854083
  28.4250113  50.8614913  24.7484083  27.7110113  50.3904913  24.9194083
  28.2630113  51.2024913  23.9624083  28.2960113  50.8424913  24.6574083
  28.8680113  58.8054913  23.1284083  29.3440113  58.0764913  23.0804083
  28.0470113  58.5194913  23.0524083  28.8170113  58.6554913  23.1094083
  22.3390113  60.7174913  33.9674083  21.5440113  60.6534913  34.3184083
  22.4100113  61.5644913  33.7724083  22.2320113  60.8324913  33.9904083
  13.2630113  50.0754913  35.2144083  13.1230113  50.8704913  34.8834083
  12.4770113  49.8324913  35.5034083  13.1260113  50.1574913  35.2084083
  18.1690113  66.9244913  29.2844083  18.1800113  66.9834913  30.1544083
  17.7440113  66.1774913  29.1344083  18.1080113  66.8224913  29.3904083
  16.3270113  52.8194913  22.4394083  16.4530113  52.4904913  21.6414083
  15.5150113  52.5704913  22.6384083  16.2260113  52.7344913  22.3514083
  25.0840113  59.9724913  25.4834083  25.1600113  60.3134913  26.2824083
  25.2530113  59.1254913  25.6044083  25.1200113  59.8974913  25.6194083
  22.6060113  59.2464913  25.0484083  22.3080113  58.9314913  25.8054083
  23.3010113  59.7194913  25.2834083  22.6650113  59.2694913  25.1954083
  22.8280113  63.3644913  33.0754083  23.5150113  63.2504913  33.6004083
  22.9620113  64.1554913  32.7314083  22.9490113  63.4644913  33.1024083
  31.0040113  55.9734913  34.8864083  30.1490113  55.8514913  35.0124083
  31.1570113  55.5784913  34.1234083  30.9000113  55.8964913  34.7924083
  25.5170113  56.6384913  33.4624083  25.2620113  55.9194913  33.8844083
  26.3380113  56.7544913  33.7324083  25.6010113  56.5494913  33.5644083
  14.9330113  66.4224913  34.7264083  14.2790113  65.8534913  34.8244083
  14.5580113  67.1954913  34.8774083  14.7810113  66.4524913  34.7634083
  23.4510113  57.8284913  36.6494083  23.7740113  58.5144913  36.2174083
  22.7470113  58.1514913  37.0514083  23.3940113  57.9774913  36.6444083
  26.5350113  66.2024913  27.5784083  26.0840113  66.8454913  27.9574083
  27.2430113  66.1234913  28.0834083  26.5730113  66.2854913  27.7094083
  23.2360113  61.2924913  30.5084083  22.5420113  61.6944913  30.8514083
  23.9130113  61.7254913  30.8474083  23.2330113  61.4154913  30.6094083
  28.6130113  63.8854913  37.0884083  29.3890113  63.4954913  37.1714083
  28.1440113  63.5494913  37.7434083  28.6580113  63.7784913  37.1974083
  16.3040113  54.8304913  32.8554083  16.6790113  55.4494913  32.3684083
  16.9780113  54.3564913  33.1404083  16.4590113  54.8524913  32.8254083
  14.0790113  53.2784913  32.1304083  14.1560113  53.1094913  31.2774083
  14.8250113  53.6844913  32.3274083  14.2000113  53.3134913  32.0334083
  29.6380113  55.9184913  22.5704083  29.7410113  55.8604913  21.7064083
  30.3790113  55.5864913  22.8884083  29.7630113  55.8614913  22.4894083
  16.6330113  50.6884913  34.5414083  16.5520113  49.8444913  34.7474083
  16.3190113  50.7324913  33.7284083  16.5750113  50.5704913  34.4514083
  23.5580113  62.8834913  23.6774083  23.3530113  63.7164913  23.5184083
  22.7830113  62.5014913  23.7994083  23.4130113  62.9504913  23.6724083
  28.7400113  56.0644913  31.9264083  28.7380113  55.2014913  32.0504083
  28.8070113  56.3884913  32.7334083  28.7500113  55.9844913  32.0634083
  13.4760113  58.5044913  32.3544083  13.7960113  58.7234913  31.5734083
  13.3760113  57.6394913  32.2994083  13.5080113  58.4094913  32.2314083
  14.9320113  54.4404913  18.9724083  14.2600113  54.4544913  19.5284083
  15.0270113  53.5924913  18.7884083  14.8470113  54.3174913  19.0274083
  24.6190113  50.8644913  35.7084083  24.7110113  51.5764913  36.2024083
  23.9820113  50.4194913  36.1054083  24.5380113  50.9034913  35.8404083
  23.6130113  51.0544913  26.5624083  22.9130113  51.5724913  26.5064083
  23.6510113  50.6744913  25.7784083  23.5150113  51.0754913  26.4384083
  18.9200113  63.1454913  20.0864083  19.3610113  63.2254913  20.8344083
  18.1150113  62.9294913  20.3444083  18.8660113  63.1254913  20.2354083
  27.2110113  51.5704913  29.3624083  28.0660113  51.6694913  29.5074083
  26.8420113  52.1234913  29.9274083  27.2830113  51.6674913  29.4674083
  18.2390113  57.7964913  33.7394083  17.8430113  58.5704913  33.8144083
  17.8330113  57.4234913  33.0634083  18.1210113  57.8554913  33.6504083
  27.5150113  56.8504913  27.8534083  28.1810113  57.3914913  28.0134083
  27.1700113  57.1614913  27.1144083  27.5620113  56.9764913  27.7684083
  27.8280113  64.9164913  23.6604083  27.6540113  64.2624913  24.2104083
  28.5410113  64.6454913  23.2374083  27.9080113  64.7794913  23.6794083
  16.2490113  62.2154913  20.6874083  16.0050113  61.9084913  21.4674083
  16.2160113  61.5124913  20.1714083  16.2080113  62.0664913  20.7264083
  19.0680113  60.4604913  19.4304083  18.2500113  60.1924913  19.5704083
  19.0400113  61.3124913  19.6154083  18.9430113  60.5474913  19.4784083
  18.6680113  50.7734913  31.1894083  17.8040113  50.8574913  31.2694083
  18.8880113  50.2594913  31.8584083  18.5730113  50.7104913  31.3004083
  22.7710113  51.5214913  29.5634083  22.0340113  51.0674913  29.6764083
  23.3420113  51.1194913  30.0864083  22.7460113  51.3944913  29.6574083
  25.5030113  62.3694913  31.3514083  25.7090113  62.6704913  32.1434083
  25.4420113  63.0914913  30.8664083  25.5240113  62.5204913  31.3964083
  25.0370113  66.5834913  35.5974083  24.2840113  66.5654913  35.1564083
  25.2050113  67.4354913  35.6814083  24.9510113  66.7064913  35.5444083
  20.2740113  55.8504913  34.7674083  19.9520113  55.2744913  34.1974083
  19.9150113  56.6054913  34.5214083  20.1740113  55.8764913  34.6474083
  21.0700113  49.1024913  19.3944083  21.1480113  49.3494913  18.5614083
  20.3270113  49.4794913  19.6524083  20.9720113  49.1944913  19.3094083
  30.3150113  61.0084913  30.8094083  30.2830113  60.1464913  30.6744083
  29.6220113  61.3104913  30.3754083  30.2080113  60.9254913  30.7254083
  18.7090113  66.2064913  35.0154083  18.7500113  66.3324913  35.8784083
  19.3600113  65.6464913  34.8594083  18.8110113  66.1424913  35.1204083
  28.4200113  64.2684913  29.6064083  28.9470113  64.1854913  28.9154083
  28.0290113  63.4904913  29.6604083  28.4400113  64.1414913  29.5124083
  15.8880113  50.8564913  31.8374083  15.5450113  50.0894913  31.6034083
  15.1930113  51.3804913  31.9014083  15.7350113  50.8204913  31.8124083
  24.9340113  49.7124913  28.8144083  25.6040113  50.2564913  28.9414083
  24.4310113  50.1364913  28.2414083  24.9590113  49.8554913  28.7484083
  16.3020113  64.5894913  36.3754083  16.8970113  65.0204913  36.8474083
  15.9380113  65.2134913  35.8864083  16.3360113  64.7454913  36.3724083
  14.5410113  54.1704913  25.7934083  14.1730113  54.4724913  26.5244083
  15.0750113  53.5414913  26.0774083  14.5650113  54.1224913  25.9434083
  14.2290113  62.5784913  33.3044083  13.6550113  62.9944913  33.8134083
  14.9620113  63.0434913  33.3994083  14.2530113  62.7084913  33.3934083
  26.2630113  57.3514913  22.8694083  26.3310113  56.5014913  23.0504083
  25.4400113  57.4374913  22.5914083  26.1510113  57.2384913  22.8554083
  16.0150113  65.8454913  22.0794083  15.8700113  66.0014913  21.2334083
  16.8810113  65.9244913  22.1574083  16.1220113  65.8804913  21.9664083
  20.1820113  58.2424913  21.8074083  20.2820113  58.3814913  20.9524083
  21.0000113  58.1824913  22.1034083  20.3170113  58.2534913  21.7244083
  29.3420113  66.3064913  19.2874083  29.9790113  66.1724913  19.8684083
  29.0010113  65.5124913  19.1704083  29.3860113  66.1694913  19.3554083
  29.5370113  58.7244913  36.0204083  30.1710113  58.5544913  36.5944083
  29.9540113  59.1274913  35.3684083  29.6920113  58.7594913  36.0094083
  25.4170113  62.5714913  21.6094083  25.1660113  62.4434913  22.4354083
  25.1000113  61.8764913  21.1884083  25.3330113  62.4504913  21.6694083
  30.1620113  53.2884913  36.7584083  29.9660113  53.9324913  37.3134083
  29.4400113  52.7984913  36.7504083  30.0270113  53.3114913  36.8394083
  30.0610113  54.2294913  29.7294083  29.2280113  54.4794913  29.6574083
  30.0050113  53.3894913  29.9584083  29.9300113  54.1424913  29.7524083
  19.3210113  51.2174913  34.9234083  19.5550113  50.6414913  34.3104083
  18.4790113  51.0364913  35.0644083  19.2310113  51.1054913  34.8534083
  26.9480113  58.8354913  37.3754083  27.8190113  58.7994913  37.3394083
  26.7290113  59.2554913  36.6434083  27.0450113  58.8914913  37.2624083
  16.7020113  64.6604913  28.5564083  16.6230113  63.8504913  28.2404083
  16.2580113  65.1474913  27.9844083  16.6250113  64.6124913  28.4254083
  22.3030113  60.7794913  21.0394083  23.0200113  60.4324913  20.6834083
  22.2690113  61.5794913  20.6914083  22.4040113  60.8464913  20.9354083
  14.2740113  66.9044913  32.1374083  14.7670113  66.8484913  32.8554083
  14.4620113  66.1714913  31.7024083  14.3750113  66.7874913  32.1794083
  23.7120113  49.4204913   5.2781673  23.4670113  49.9084913   4.5981673
  24.5750113  49.3474913   5.1781673  23.8030113  49.4814913   5.1631673
  23.5210113  56.3364913   9.9491673  22.9970113  56.9324913  10.3121673
  23.9180113  55.9684913  10.6331673  23.5020113  56.3704913  10.1041673
  13.3900113  60.4764913   5.4051673  12.9490113  60.5944913   6.1481673
  13.1070113  59.7014913   5.1201673  13.2830113  60.3794913   5.4731673
  29.6650113  63.7774913   2.9201673  30.3660113  63.2584913   2.9161673
  29.0780113  63.3324913   2.4511673  29.6820113  63.6344913   2.8501673
  26.1920113  57.4034913   6.6251673  26.2720113  57.4074913   5.7561673
  25.6080113  56.7714913   6.7741673  26.1170113  57.3104913   6.5191673
  15.8990113  61.1724913   4.4841673  16.5070113  61.0024913   5.0871673
  15.1480113  61.0324913   4.9051673  15.8780113  61.1264913   4.6351673
  20.1810113  50.5074913   4.4331673  20.1110113  51.1844913   3.8871673
  20.9220113  50.1194913   4.1841673  20.2800113  50.5504913   4.3151673
  13.3300113  63.2114913  11.6601673  13.4590113  62.9314913  12.4761673
  12.7200113  62.6704913  11.3511673  13.2590113  63.0904913  11.7351673
  19.9040113  60.7364913  16.7271673  19.6680113  60.7334913  17.5671673
  19.1560113  60.5884913  16.3031673  19.7580113  60.7134913  16.7881673
  14.7760113  57.7324913   5.8621673  14.3140113  57.3404913   5.2351673
  15.4760113  57.2194913   5.9541673  14.8110113  57.5994913   5.7831673
  19.2840113  53.3424913  11.2091673  19.9620113  53.3604913  10.6601673
  19.2390113  52.5064913  11.4541673  19.3770113  53.2214913  11.1641673
  19.8860113  63.9284913  13.9901673  20.0240113  64.6884913  13.5831673
  20.6770113  63.5634913  14.0171673  20.0230113  63.9874913  13.9341673
  16.7770113  55.8324913   5.8851673  17.5940113  55.6454913   6.1281673
  16.3000113  55.2184913   6.2811673  16.8270113  55.7144913   5.9801673
  20.9810113  61.8134913   8.4951673  21.3290113  61.0144913   8.5251673
  21.6460113  62.3174913   8.2401673  21.1310113  61.7694913   8.4621673
  21.0380113  61.2624913   4.7061673  21.3690113  60.6184913   5.1921673
  21.2780113  61.0514913   3.8951673  21.1220113  61.1364913   4.6581673
  23.0060113  55.3934913  16.0451673  22.1580113  55.2944913  15.8671673
  23.0350113  56.1384913  16.4991673  22.8850113  55.4894913  16.0861673
  17.3740113  50.9264913   5.1511673  17.0780113  51.4274913   4.5011673
  18.2410113  51.0044913   5.0941673  17.4580113  51.0124913   5.0471673
  27.5640113  48.3534913  15.1591673  27.4060113  49.1224913  14.7771673
  26.7920113  48.1334913  15.5031673  27.4260113  48.4344913  15.1541673
  20.3530113  50.0684913   7.3741673  20.4260113  50.9284913   7.5031673
  20.3150113  49.9934913   6.5061673  20.3580113  50.1844913   7.2651673
  13.2320113  55.4934913   8.8751673  12.9760113  56.3244913   8.8001673
  12.5680113  55.1104913   9.2921673  13.0960113  55.5594913   8.9261673
  13.1420113  65.2034913   6.7751673  12.5500113  65.7614913   6.4621673
  13.5680113  64.9344913   6.0631673  13.1180113  65.2454913   6.6241673
  18.9820113  63.0474913   4.2551673  18.4030113  62.7724913   4.8471673
  19.6060113  62.4384913   4.2801673  18.9890113  62.9174913   4.3461673
  25.1250113  65.3354913   1.7771673  25.8520113  65.8074913   1.8791673
  25.3540113  64.5414913   2.0571673  25.2670113  65.2884913   1.8341673
  23.2930113  65.7274913   3.7671673  23.5070113  66.2544913   4.4291673
  24.0600113  65.5534913   3.3881673  23.4380113  65.7794913   3.8091673
  16.2610113  50.3104913   9.3661673  15.7400113  49.6824913   9.0581673
  16.8520113  49.8734913   9.8371673  16.2720113  50.1524913   9.3901673
  19.5670113  52.4434913  18.6641673  19.6840113  51.9894913  17.9281673
  19.8550113  53.2414913  18.4611673  19.6270113  52.4944913  18.5251673
  14.6870113  63.8734913   4.7061673  15.3430113  63.2984913   4.7211673
  15.0760113  64.6224913   4.4851673  14.8420113  63.8984913   4.6761673
  30.4200113  52.9674913   5.9681673  30.0740113  53.6454913   6.3941673
  29.7840113  52.3694913   5.9841673  30.2750113  52.9794913   6.0331673
  25.7320113  65.7374913  12.0721673  26.4760113  66.1934913  12.0621673
  25.6110113  65.5234913  11.2351673  25.8240113  65.7734913  11.9471673
  15.3000113  52.0404913  17.6481673  14.5220113  51.6504913  17.5761673
  15.7910113  51.6284913  17.0571673  15.2570113  51.9214913  17.5501673
  15.5050113  62.3604913   8.2061673  15.9280113  62.0044913   7.5321673
  15.8290113  61.9384913   8.8981673  15.6150113  62.2454913   8.2091673
  18.7360113  65.2124913   7.5021673  19.5800113  65.3164913   7.3071673
  18.4390113  66.0304913   7.5701673  18.8170113  65.3484913   7.4831673
  21.9490113  49.6834913  16.8161673  22.1270113  48.8744913  16.5411673
  21.8060113  50.1244913  16.0771673  21.9540113  49.6294913  16.6661673
  22.5430113  54.6094913   5.5891673  22.8300113  54.3774913   4.7991673
  23.2750113  54.6884913   6.0581673  22.6930113  54.5864913   5.5421673
  27.3060113  66.9224913   2.1771673  27.9710113  66.7744913   1.6321673
  27.6660113  66.8394913   2.9671673  27.4580113  66.8884913   2.2131673
  17.7340113  66.4314913  13.2421673  18.0260113  66.3644913  14.0621673
  17.1080113  65.8264913  13.1971673  17.6850113  66.3324913  13.3571673
  30.0950113  51.2904913  11.3371673  30.8520113  51.3624913  10.9091673
  30.1580113  50.5174913  11.7361673  30.2160113  51.1874913  11.3321673
  12.6480113  52.5884913  15.2341673  12.6440113  53.1754913  15.8801673
  13.2420113  52.9004913  14.6771673  12.7350113  52.7214913  15.2471673
  24.9860113  62.9224913  15.7761673  24.9520113  63.3044913  16.5601673
  25.8400113  62.8804913  15.6051673  25.1070113  62.9724913  15.8671673
  13.5850113  52.1834913   4.1491673  13.4710113  51.3194913   4.1801673
  13.1100113  52.4774913   4.8191673  13.4980113  52.0994913   4.2521673
  15.7270113  64.5934913  12.3641673  15.0290113  64.0854913  12.4901673
  15.9870113  64.3884913  11.5561673  15.6620113  64.4884913  12.2631673
  22.8890113  53.3914913   2.8941673  22.3810113  52.7294913   2.6401673
  22.9410113  53.8954913   2.1841673  22.8220113  53.3684913   2.7521673
  23.4380113  66.0864913  13.2741673  24.2060113  66.0064913  12.8681673
  22.8550113  65.9654913  12.6361673  23.4650113  66.0564913  13.1201673
  22.8890113  50.3324913   2.7851673  22.4340113  49.9304913   2.1591673
  23.6620113  50.4874913   2.4101673  22.9360113  50.2964913   2.6371673
  29.7150113  66.6894913   6.1751673  29.2600113  67.4064913   6.3761673
  29.1010113  66.1184913   5.9331673  29.5570113  66.7114913   6.1691673
  21.4870113  52.6994913   7.3071673  21.5610113  53.2674913   6.6491673
  21.6080113  53.1914913   8.0171673  21.5150113  52.8564913   7.3151673
  26.7120113  62.5344913   5.7191673  27.4130113  62.0524913   5.9081673
  26.0520113  61.9654913   5.7641673  26.7180113  62.3794913   5.7531673
  17.0880113  63.4444913  14.9311673  17.9290113  63.5074913  14.7091673
  17.0510113  63.8414913  15.7071673  17.2070113  63.5124913  15.0131673
  16.0950113  48.5224913   5.6551673  16.6310113  49.2104913   5.6451673
  16.0980113  48.2484913   4.8271673  16.1740113  48.5834913   5.5311673
  19.0510113  58.9554913   9.6801673  19.2230113  58.7454913  10.5091673
  18.3960113  58.4214913   9.4641673  18.9800113  58.8454913   9.7711673
  25.2790113  52.8694913  13.1951673  25.1840113  53.1884913  14.0011673
  24.6860113  52.2304913  13.1571673  25.1770113  52.8214913  13.3091673
  19.8010113  58.8934913  12.2701673  19.8540113  59.7404913  12.4721673
  19.5160113  58.5234913  13.0071673  19.7670113  58.9634913  12.4081673
  25.9780113  59.5884913  11.4001673  25.4640113  59.1764913  11.9711673
  25.8520113  60.4324913  11.5811673  25.8840113  59.6524913  11.5111673
  26.5350113  48.8134913   6.0311673  26.5840113  48.4954913   6.8421673
  26.8580113  48.1694913   5.5381673  26.5900113  48.6714913   6.0781673
  12.6220113  63.2644913  18.4811673  13.3780113  63.6134913  18.7391673
  12.7990113  62.4114913  18.4241673  12.7600113  63.1894913  18.5111673
  28.9990113  53.0494913  14.3391673  29.7710113  52.8244913  14.6761673
  28.5240113  53.2664913  15.0391673  29.0430113  53.0484913  14.4921673
  16.5430113  52.3324913   7.3091673  16.8150113  51.9024913   6.6011673
  16.3670113  51.6964913   7.8801673  16.5570113  52.1754913   7.2891673
  16.3670113  59.7594913   6.8581673  17.2180113  59.6794913   6.6851673
  16.0100113  59.0774913   6.4461673  16.4400113  59.6464913   6.7711673
  15.1340113  66.4844913   8.0951673  14.4610113  65.9864913   7.8501673
  15.5370113  66.6694913   7.3441673  15.0940113  66.4384913   7.9481673
  14.6840113  53.4344913  10.3911673  15.5270113  53.6544913  10.3481673
  14.2950113  54.0074913   9.8601673  14.7510113  53.5514913  10.3061673
  31.4650113  64.5364913  15.7811673  30.7830113  64.8464913  15.3341673
  31.0960113  64.0784913  16.4261673  31.3090113  64.5144913  15.8101673
  18.7350113  59.7664913   5.0931673  19.4480113  60.2614913   5.1831673
  18.9570113  59.1994913   4.4671673  18.8730113  59.7554913   5.0141673
  12.8910113  61.4094913   8.4131673  12.2240113  61.8974913   8.6891673
  13.5710113  61.9544913   8.4421673  12.8930113  61.5614913   8.4581673
  20.5380113  55.1194913  18.5091673  20.0540113  55.6964913  18.9511673
  20.5100113  55.4144913  17.6881673  20.4620113  55.2484913  18.4531673
  31.6360113  55.8034913  13.1211673  31.8510113  55.0034913  12.8451673
  30.7860113  55.8634913  12.9321673  31.5420113  55.6944913  13.0521673
  12.9570113  58.0934913   3.5161673  12.7720113  57.2544913   3.6681673
  13.6160113  58.0574913   2.9461673  13.0270113  57.9644913   3.4541673
  29.3150113  50.9834913   2.8441673  30.0610113  50.5764913   3.0431673
  29.5780113  51.6984913   2.4191673  29.4640113  51.0294913   2.8111673
  23.2580113  63.4694913   7.4201673  22.7350113  64.1034913   7.1271673
  23.5680113  63.1054913   6.6911673  23.2260113  63.5094913   7.2691673
  13.1290113  62.2574913   3.0911673  13.6810113  62.8264913   3.4551673
  12.8970113  61.7424913   3.7561673  13.1760113  62.2654913   3.2431673
  17.3330113  61.2574913  10.1801673  17.8000113  61.5464913  10.8581673
  17.9050113  60.7794913   9.7261673  17.4870113  61.2294913  10.2131673
  25.7690113  53.2714913   7.9171673  26.1130113  53.4234913   8.7041673
  25.3160113  52.5334913   8.0301673  25.7530113  53.1844913   8.0501673
  13.8990113  58.9274913   8.7241673  14.3300113  58.7984913   7.9771673
  13.6940113  59.7754913   8.6981673  13.9320113  59.0334913   8.6101673
  29.2990113  64.9184913  13.8711673  28.6280113  65.4324913  14.0891673
  29.3620113  65.0184913  13.0071673  29.2090113  65.0094913  13.7761673
  17.9830113  62.4434913   7.0061673  18.1090113  63.2864913   7.1931673
  18.6510113  62.0444913   7.4021673  18.1010113  62.5094913   7.0921673
  16.1130113  55.9264913  16.8681673  15.5770113  55.4204913  17.3361673
  16.1330113  55.5364913  16.0881673  16.0360113  55.7934913  16.8221673
  16.7650113  57.1534913   8.6071673  15.9840113  57.0944913   8.2241673
  16.8370113  56.4014913   9.0441673  16.6600113  57.0344913   8.6151673
  17.1950113  56.8904913  12.0751673  17.2200113  56.2154913  11.5241673
  16.5490113  57.3864913  11.7631673  17.1040113  56.8634913  11.9481673
  27.0900113  54.6034913  10.4711673  26.4280113  54.9314913  10.9341673
  27.2770113  55.2374913   9.9021673  27.0200113  54.7454913  10.4551673
  21.2950113  65.6674913  11.4671673  21.0180113  65.0264913  10.9441673
  21.0870113  66.3934913  11.0291673  21.2240113  65.6804913  11.3251673
  23.7350113  50.5094913  13.9001673  23.8840113  49.6844913  13.6571673
  24.1140113  50.5644913  14.6841673  23.8130113  50.3954913  13.9801673
  25.2830113  52.5724913   3.9821673  25.7730113  53.2894913   3.9051673
  24.4930113  52.8334913   3.7191673  25.2390113  52.7164913   3.9321673
  14.9940113  58.2454913  17.6341673  14.9570113  58.7464913  16.9201673
  15.3250113  57.4934913  17.3391673  15.0370113  58.2074913  17.4851673
  26.5970113  60.4504913  15.8921673  27.0810113  61.1684913  15.9901673
  26.9910113  60.0234913  15.2411673  26.7270113  60.4934913  15.8101673
  20.8930113  63.2954913  17.0691673  21.2470113  63.1174913  17.8461673
  20.4570113  62.5664913  16.8701673  20.8810113  63.1614913  17.1551673
  21.8650113  54.0424913   9.7071673  22.3450113  54.7414913   9.9151673
  22.2380113  53.3954913  10.1581673  21.9910113  54.0504913   9.8041673
  29.0260113  61.0814913   5.9621673  29.3820113  60.7314913   6.6771673
  29.0180113  60.4204913   5.3921673  29.0780113  60.9314913   5.9831673
  25.0710113  64.1474913   9.8061673  24.4680113  63.8514913   9.2491673
  25.6160113  64.5994913   9.2971673  25.0620113  64.1704913   9.6481673
  25.0840113  60.9984913   9.2061673  24.2870113  61.2224913   9.4801673
  25.3420113  60.4044913   9.7911673  25.0040113  60.9434913   9.3331673
  18.9760113  65.8104913   3.6541673  18.8290113  65.0344913   4.0251673
  19.6650113  65.6634913   3.1391673  19.0560113  65.6734913   3.6331673
  28.3440113  58.9964913  14.0521673  28.3990113  59.1214913  13.1901673
  29.0970113  59.3164913  14.3541673  28.4630113  59.0614913  13.9691673
  24.5350113  64.3454913  18.3291673  24.6990113  64.6284913  19.1381673
  24.7980113  65.0064913  17.8241673  24.5980113  64.4854913  18.3741673
  29.3760113  49.2944913  17.0391673  28.7390113  48.8944913  16.5971673
  29.4020113  48.8634913  17.7971673  29.2860113  49.1724913  17.0851673
  15.7690113  57.8604913   2.8851673  16.0930113  57.0814913   2.6631673
  16.4150113  58.2284913   3.3401673  15.9120113  57.7994913   2.9191673
  24.0750113  58.8024913  13.6521673  23.9200113  59.4124913  14.2561673
  24.6090113  58.2444913  14.0581673  24.1310113  58.8104913  13.8011673
  12.7660113  49.5214913   3.8531673  12.8950113  48.8134913   3.3611673
  12.3990113  49.2034913   4.5781673  12.7310113  49.3694913   3.8881673
  22.4590113  57.2024913   4.3101673  22.5180113  57.8524913   4.8891673
  22.2700113  56.5064913   4.8011673  22.4400113  57.1954913   4.4681673
  27.6850113  61.5314913  10.1791673  27.2060113  61.8294913   9.5131673
  27.3290113  60.7554913  10.3571673  27.5620113  61.4604913  10.1071673
  21.6820113  59.2494913   8.7411673  20.8350113  59.0554913   8.8221673
  22.0060113  59.0844913   9.5341673  21.6040113  59.1964913   8.8701673
  15.5300113  58.9424913  11.0571673  16.2520113  59.4304913  11.0201673
  15.2600113  58.9124913  10.2281673  15.5970113  59.0104913  10.9291673
  18.7600113  54.1134913   7.7921673  19.6060113  53.9234913   7.8901673
  18.3900113  53.3364913   7.6541673  18.8300113  53.9704913   7.7861673
  31.3770113  65.6974913   2.1191673  32.0710113  65.2304913   1.8711673
  30.8380113  65.0994913   2.4561673  31.4000113  65.5394913   2.1321673
  13.5810113  55.4514913   4.4471673  14.0700113  55.1594913   5.1081673
  13.7100113  54.8584913   3.8201673  13.6720113  55.3204913   4.4521673
  28.6160113  58.4734913  11.2981673  28.6090113  57.6974913  11.6961673
  27.7750113  58.7074913  11.2911673  28.4910113  58.3934913  11.3561673
  14.9250113  59.9944913  15.3351673  14.5040113  59.4764913  14.7741673
  14.5730113  60.7804913  15.1921673  14.8110113  60.0344913  15.2311673
  29.8720113  58.5444913   8.7351673  29.5860113  58.9454913   9.4551673
  30.7320113  58.4824913   8.8621673  29.9570113  58.5944913   8.8601673
  19.5610113  55.3464913   2.6431673  19.8330113  56.1724913   2.7101673
  18.6980113  55.4214913   2.5471673  19.4740113  55.4794913   2.6381673
  27.5340113  52.4684913  17.2751673  27.0090113  52.9274913  17.7991673
  27.1730113  51.6734913  17.2691673  27.4030113  52.4184913  17.3511673
  13.0410113  51.3164913   9.1791673  13.0850113  51.6604913   8.3781673
  13.7960113  51.5534913   9.5461673  13.1590113  51.4024913   9.1151673
  31.0030113  64.1774913   9.2641673  31.2930113  64.4344913   8.4831673
  31.6980113  64.2734913   9.7831673  31.1490113  64.2294913   9.2251673
  26.0260113  56.0374913  17.3511673  26.0990113  56.1414913  18.2141673
  25.3920113  56.5954913  17.1301673  25.9430113  56.1354913  17.4461673
  28.2940113  56.3564913  15.7161673  28.6130113  57.1424913  15.9191673
  27.9240113  56.0864913  16.4591673  28.2870113  56.4324913  15.8561673
  28.0900113  54.6144913   6.9051673  27.3450113  54.2914913   7.2231673
  28.0920113  55.4404913   7.1851673  27.9800113  54.6884913   6.9931673
  30.9920113  56.8984913  18.4511673  30.9400113  56.5574913  17.6501673
  31.7290113  57.3654913  18.4291673  31.0930113  56.9174913  18.3291673
  30.5300113  60.5744913  14.6571673  31.1580113  60.0254913  14.4011673
  30.4690113  61.1394913  13.9951673  30.6140113  60.5774913  14.5211673
  19.6640113  61.8054913  11.9531673  19.3660113  62.3974913  12.5201673
  19.7190113  62.2474913  11.2041673  19.6280113  61.9584913  11.9261673
  17.6430113  60.7554913  15.3511673  16.8370113  60.4654913  15.5181673
  17.5540113  61.6234913  15.3571673  17.5110113  60.8404913  15.3761673
  27.0020113  50.9444913  14.3661673  27.7460113  51.3964913  14.3031673
  26.4360113  51.4144913  13.8971673  27.0290113  51.0814913  14.2881673
  22.1800113  58.2284913  11.4441673  22.6560113  58.6024913  12.0721673
  21.3570113  58.3624913  11.7031673  22.1290113  58.3034913  11.5751673
  18.8900113  53.8314913  14.1851673  19.0510113  53.0874913  14.6121673
  18.8450113  53.5824913  13.3501673  18.9070113  53.6844913  14.1251673
  21.4440113  65.6214913   6.6721673  21.9900113  66.3004913   6.7261673
  21.0940113  65.7034913   5.8771673  21.4730113  65.7344913   6.5621673
  28.2870113  48.9244913  12.0361673  28.0070113  49.7494913  11.9921673
  29.0030113  48.9774913  12.5321673  28.3520113  49.0544913  12.1031673
  20.6420113  49.6394913  14.0651673  21.3470113  49.9594913  13.6631673
  20.8830113  48.8324913  14.2921673  20.7810113  49.5674913  14.0391673
  19.6270113  63.8494913  10.0611673  19.0030113  64.4314913   9.8791673
  19.8750113  63.5634913   9.2751673  19.5710113  63.8934913   9.9181673
  23.9360113  60.4834913  17.0501673  24.6930113  60.7694913  16.7241673
  23.3890113  60.5354913  16.3721673  23.9670113  60.5334913  16.9011673
  27.8450113  63.0334913  15.5541673  28.1910113  63.3034913  16.3081673
  28.1390113  63.6154913  14.9741673  27.9400113  63.1594913  15.5801673
  17.1510113  54.6924913  10.1261673  17.5910113  54.5894913   9.3801673
  17.6960113  54.3794913  10.7311673  17.2960113  54.6314913  10.1051673
  25.1670113  53.7944913  15.7181673  24.5190113  54.2644913  16.0661673
  25.7320113  53.7054913  16.3771673  25.1550113  53.8504913  15.8671673
  24.8550113  55.3314913  12.0161673  25.1570113  55.7514913  12.7191673
  24.8910113  54.4914913  12.2481673  24.9050113  55.2694913  12.1541673
  22.2800113  65.4984913  15.9411673  22.7580113  64.8984913  15.5251673
  21.9290113  65.0554913  16.6061673  22.2990113  65.3444913  15.9781673
  27.4030113  54.7784913   4.2681673  27.6100113  54.5774913   5.0921673
  28.1590113  55.0464913   3.9261673  27.5450113  54.7884913   4.3391673
  20.6980113  49.6774913  10.1731673  19.8720113  49.5284913  10.4101673
  20.6580113  49.7124913   9.3021673  20.5700113  49.6604913  10.0791673
  28.4250113  50.8614913   5.7421673  27.7110113  50.3904913   5.9131673
  28.2630113  51.2024913   4.9561673  28.2960113  50.8424913   5.6511673
  28.8680113  58.8054913   4.1221673  29.3440113  58.0764913   4.0741673
  28.0470113  58.5194913   4.0461673  28.8170113  58.6554913   4.1031673
  22.3390113  60.7174913  14.9611673  21.5440113  60.6534913  15.3121673
  22.4100113  61.5644913  14.7661673  22.2320113  60.8324913  14.9841673
  13.2630113  50.0754913  16.2081673  13.1230113  50.8704913  15.8771673
  12.4770113  49.8324913  16.4971673  13.1260113  50.1574913  16.2021673
  18.1690113  66.9244913  10.2781673  18.1800113  66.9834913  11.1481673
  17.7440113  66.1774913  10.1281673  18.1080113  66.8224913  10.3841673
  16.3270113  52.8194913   3.4331673  16.4530113  52.4904913   2.6351673
  15.5150113  52.5704913   3.6321673  16.2260113  52.7344913   3.3451673
  25.0840113  59.9724913   6.4771673  25.1600113  60.3134913   7.2761673
  25.2530113  59.1254913   6.5981673  25.1200113  59.8974913   6.6131673
  22.6060113  59.2464913   6.0421673  22.3080113  58.9314913   6.7991673
  23.3010113  59.7194913   6.2771673  22.6650113  59.2694913   6.1891673
  22.8280113  63.3644913  14.0691673  23.5150113  63.2504913  14.5941673
  22.9620113  64.1554913  13.7251673  22.9490113  63.4644913  14.0961673
  31.0040113  55.9734913  15.8801673  30.1490113  55.8514913  16.0061673
  31.1570113  55.5784913  15.1171673  30.9000113  55.8964913  15.7861673
  25.5170113  56.6384913  14.4561673  25.2620113  55.9194913  14.8781673
  26.3380113  56.7544913  14.7261673  25.6010113  56.5494913  14.5581673
  14.9330113  66.4224913  15.7201673  14.2790113  65.8534913  15.8181673
  14.5580113  67.1954913  15.8711673  14.7810113  66.4524913  15.7571673
  23.4510113  57.8284913  17.6431673  23.7740113  58.5144913  17.2111673
  22.7470113  58.1514913  18.0451673  23.3940113  57.9774913  17.6381673
  26.5350113  66.2024913   8.5721673  26.0840113  66.8454913   8.9511673
  27.2430113  66.1234913   9.0771673  26.5730113  66.2854913   8.7031673
  23.2360113  61.2924913  11.5021673  22.5420113  61.6944913  11.8451673
  23.9130113  61.7254913  11.8411673  23.2330113  61.4154913  11.6031673
  28.6130113  63.8854913  18.0821673  29.3890113  63.4954913  18.1651673
  28.1440113  63.5494913  18.7371673  28.6580113  63.7784913  18.1911673
  16.3040113  54.8304913  13.8491673  16.6790113  55.4494913  13.3621673
  16.9780113  54.3564913  14.1341673  16.4590113  54.8524913  13.8191673
  14.0790113  53.2784913  13.1241673  14.1560113  53.1094913  12.2711673
  14.8250113  53.6844913  13.3211673  14.2000113  53.3134913  13.0271673
  29.6380113  55.9184913   3.5641673  29.7410113  55.8604913   2.7001673
  30.3790113  55.5864913   3.8821673  29.7630113  55.8614913   3.4831673
  16.6330113  50.6884913  15.5351673  16.5520113  49.8444913  15.7411673
  16.3190113  50.7324913  14.7221673  16.5750113  50.5704913  15.4451673
  23.5580113  62.8834913   4.6711673  23.3530113  63.7164913   4.5121673
  22.7830113  62.5014913   4.7931673  23.4130113  62.9504913   4.6661673
  28.7400113  56.0644913  12.9201673  28.7380113  55.2014913  13.0441673
  28.8070113  56.3884913  13.7271673  28.7500113  55.9844913  13.0571673
  13.4760113  58.5044913  13.3481673  13.7960113  58.7234913  12.5671673
  13.3760113  57.6394913  13.2931673  13.5080113  58.4094913  13.2251673
  24.6190113  50.8644913  16.7021673  24.7110113  51.5764913  17.1961673
  23.9820113  50.4194913  17.0991673  24.5380113  50.9034913  16.8341673
  23.6130113  51.0544913   7.5561673  22.9130113  51.5724913   7.5001673
  23.6510113  50.6744913   6.7721673  23.5150113  51.0754913   7.4321673
  27.2110113  51.5704913  10.3561673  28.0660113  51.6694913  10.5011673
  26.8420113  52.1234913  10.9211673  27.2830113  51.6674913  10.4611673
  18.2390113  57.7964913  14.7331673  17.8430113  58.5704913  14.8081673
  17.8330113  57.4234913  14.0571673  18.1210113  57.8554913  14.6441673
  27.5150113  56.8504913   8.8471673  28.1810113  57.3914913   9.0071673
  27.1700113  57.1614913   8.1081673  27.5620113  56.9764913   8.7621673
  27.8280113  64.9164913   4.6541673  27.6540113  64.2624913   5.2041673
  28.5410113  64.6454913   4.2311673  27.9080113  64.7794913   4.6731673
  18.6680113  50.7734913  12.1831673  17.8040113  50.8574913  12.2631673
  18.8880113  50.2594913  12.8521673  18.5730113  50.7104913  12.2941673
  30.6860113  49.4084913  13.5121673  30.6340113  49.3644913  14.3821673
  31.3730113  48.9054913  13.3221673  30.7800113  49.3284913  13.6121673
  22.7710113  51.5214913  10.5571673  22.0340113  51.0674913  10.6701673
  23.3420113  51.1194913  11.0801673  22.7460113  51.3944913  10.6511673
  25.5030113  62.3694913  12.3451673  25.7090113  62.6704913  13.1371673
  25.4420113  63.0914913  11.8601673  25.5240113  62.5204913  12.3901673
  25.0370113  66.5834913  16.5911673  24.2840113  66.5654913  16.1501673
  25.2050113  67.4354913  16.6751673  24.9510113  66.7064913  16.5381673
  20.2740113  55.8504913  15.7611673  19.9520113  55.2744913  15.1911673
  19.9150113  56.6054913  15.5151673  20.1740113  55.8764913  15.6411673
  30.3150113  61.0084913  11.8031673  30.2830113  60.1464913  11.6681673
  29.6220113  61.3104913  11.3691673  30.2080113  60.9254913  11.7191673
  18.7090113  66.2064913  16.0091673  18.7500113  66.3324913  16.8721673
  19.3600113  65.6464913  15.8531673  18.8110113  66.1424913  16.1141673
  28.4200113  64.2684913  10.6001673  28.9470113  64.1854913   9.9091673
  28.0290113  63.4904913  10.6541673  28.4400113  64.1414913  10.5061673
  15.8880113  50.8564913  12.8311673  15.5450113  50.0894913  12.5971673
  15.1930113  51.3804913  12.8951673  15.7350113  50.8204913  12.8061673
  24.9340113  49.7124913   9.8081673  25.6040113  50.2564913   9.9351673
  24.4310113  50.1364913   9.2351673  24.9590113  49.8554913   9.7421673
  16.3020113  64.5894913  17.3691673  16.8970113  65.0204913  17.8411673
  15.9380113  65.2134913  16.8801673  16.3360113  64.7454913  17.3661673
  24.2930113  55.5204913   7.3011673  24.8440113  54.9134913   7.6011673
  23.8680113  55.7834913   8.0161673  24.3120113  55.4694913   7.4501673
  14.5410113  54.1704913   6.7871673  14.1730113  54.4724913   7.5181673
  15.0750113  53.5414913   7.0711673  14.5650113  54.1224913   6.9371673
  14.2290113  62.5784913  14.2981673  13.6550113  62.9944913  14.8071673
  14.9620113  63.0434913  14.3931673  14.2530113  62.7084913  14.3871673
  26.2630113  57.3514913   3.8631673  26.3310113  56.5014913   4.0441673
  25.4400113  57.4374913   3.5851673  26.1510113  57.2384913   3.8491673
  16.0150113  65.8454913   3.0731673  15.8700113  66.0014913   2.2271673
  16.8810113  65.9244913   3.1511673  16.1220113  65.8804913   2.9601673
  20.1820113  58.2424913   2.8011673  20.2820113  58.3814913   1.9461673
  21.0000113  58.1824913   3.0971673  20.3170113  58.2534913   2.7181673
  29.5370113  58.7244913  17.0141673  30.1710113  58.5544913  17.5881673
  29.9540113  59.1274913  16.3621673  29.6920113  58.7594913  17.0031673
  25.4170113  62.5714913   2.6031673  25.1660113  62.4434913   3.4291673
  25.1000113  61.8764913   2.1821673  25.3330113  62.4504913   2.6631673
  30.1620113  53.2884913  17.7521673  29.9660113  53.9324913  18.3071673
  29.4400113  52.7984913  17.7441673  30.0270113  53.3114913  17.8331673
  30.0610113  54.2294913  10.7231673  29.2280113  54.4794913  10.6511673
  30.0050113  53.3894913  10.9521673  29.9300113  54.1424913  10.7461673
  19.3210113  51.2174913  15.9171673  19.5550113  50.6414913  15.3041673
  18.4790113  51.0364913  16.0581673  19.2310113  51.1054913  15.8471673
  26.9480113  58.8354913  18.3691673  27.8190113  58.7994913  18.3331673
  26.7290113  59.2554913  17.6371673  27.0450113  58.8914913  18.2561673
  16.7020113  64.6604913   9.5501673  16.6230113  63.8504913   9.2341673
  16.2580113  65.1474913   8.9781673  16.6250113  64.6124913   9.4191673
  22.3030113  60.7794913   2.0331673  23.0200113  60.4324913   1.6771673
  22.2690113  61.5794913   1.6851673  22.4040113  60.8464913   1.9291673
  14.2740113  66.9044913  13.1311673  14.7670113  66.8484913  13.8491673
  14.4620113  66.1714913  12.6961673  14.3750113  66.7874913  13.1731673
  23.7120113  30.9423833  81.3031313  23.4670113  31.4303833  80.6231313
  24.5750113  30.8693833  81.2031313  23.8030113  31.0033833  81.1881313
  23.5210113  37.8583833  85.9741313  22.9970113  38.4543833  86.3371313
  23.9180113  37.4903833  86.6581313  23.5020113  37.8923833  86.1291313
  13.3900113  41.9983833  81.4301313  12.9490113  42.1163833  82.1731313
  13.1070113  41.2233833  81.1451313  13.2830113  41.9013833  81.4981313
  13.1330113  35.7903833  77.9371313  12.3550113  35.9523833  77.5771313
  13.1720113  34.9193833  77.9591313  13.0240113  35.6853833  77.8871313
  16.2720113  41.0533833  76.6091313  15.8800113  40.6823833  75.9231313
  16.1920113  40.4553833  77.2381313  16.2020113  40.9103833  76.6001313
  26.1920113  38.9253833  82.6501313  26.2720113  38.9293833  81.7811313
  25.6080113  38.2933833  82.7991313  26.1170113  38.8323833  82.5441313
  15.8990113  42.6943833  80.5091313  16.5070113  42.5243833  81.1121313
  15.1480113  42.5543833  80.9301313  15.8780113  42.6483833  80.6601313
  20.1810113  32.0293833  80.4581313  20.1110113  32.7063833  79.9121313
  20.9220113  31.6413833  80.2091313  20.2800113  32.0723833  80.3401313
  14.7900113  45.7853833  76.5861313  15.2570113  45.8693833  75.8541313
  15.2450113  45.2073833  77.0551313  14.9260113  45.7123833  76.5471313
  13.3300113  44.7333833  87.6851313  13.4590113  44.4533833  88.5011313
  12.7200113  44.1923833  87.3761313  13.2590113  44.6123833  87.7601313
  14.7760113  39.2543833  81.8871313  14.3140113  38.8623833  81.2601313
  15.4760113  38.7413833  81.9791313  14.8110113  39.1213833  81.8081313
  19.2840113  34.8643833  87.2341313  19.9620113  34.8823833  86.6851313
  19.2390113  34.0283833  87.4791313  19.3770113  34.7433833  87.1891313
  19.8860113  45.4503833  90.0151313  20.0240113  46.2103833  89.6081313
  20.6770113  45.0853833  90.0421313  20.0230113  45.5093833  89.9591313
  16.7770113  37.3543833  81.9101313  17.5940113  37.1673833  82.1531313
  16.3000113  36.7403833  82.3061313  16.8270113  37.2363833  82.0051313
  20.9810113  43.3353833  84.5201313  21.3290113  42.5363833  84.5501313
  21.6460113  43.8393833  84.2651313  21.1310113  43.2913833  84.4871313
  21.0380113  42.7843833  80.7311313  21.3690113  42.1403833  81.2171313
  21.2780113  42.5733833  79.9201313  21.1220113  42.6583833  80.6831313
  23.0060113  36.9153833  92.0701313  22.1580113  36.8163833  91.8921313
  23.0350113  37.6603833  92.5241313  22.8850113  37.0113833  92.1111313
  17.3740113  32.4483833  81.1761313  17.0780113  32.9493833  80.5261313
  18.2410113  32.5263833  81.1191313  17.4580113  32.5343833  81.0721313
  27.5640113  29.8753833  91.1841313  27.4060113  30.6443833  90.8021313
  26.7920113  29.6553833  91.5281313  27.4260113  29.9563833  91.1791313
  20.3530113  31.5903833  83.3991313  20.4260113  32.4503833  83.5281313
  20.3150113  31.5153833  82.5311313  20.3580113  31.7063833  83.2901313
  25.0260113  34.5163833  75.6981313  24.5760113  35.1973833  76.0051313
  25.1400113  34.0123833  76.4011313  24.9770113  34.5423833  75.8471313
  13.2320113  37.0153833  84.9001313  12.9760113  37.8463833  84.8251313
  12.5680113  36.6323833  85.3171313  13.0960113  37.0813833  84.9511313
  13.1420113  46.7253833  82.8001313  12.5500113  47.2833833  82.4871313
  13.5680113  46.4563833  82.0881313  13.1180113  46.7673833  82.6491313
  18.9820113  44.5693833  80.2801313  18.4030113  44.2943833  80.8721313
  19.6060113  43.9603833  80.3051313  18.9890113  44.4393833  80.3711313
  25.1250113  46.8573833  77.8021313  25.8520113  47.3293833  77.9041313
  25.3540113  46.0633833  78.0821313  25.2670113  46.8103833  77.8591313
  23.2930113  47.2493833  79.7921313  23.5070113  47.7763833  80.4541313
  24.0600113  47.0753833  79.4131313  23.4380113  47.3013833  79.8341313
  16.2610113  31.8323833  85.3911313  15.7400113  31.2043833  85.0831313
  16.8520113  31.3953833  85.8621313  16.2720113  31.6743833  85.4151313
  14.6870113  45.3953833  80.7311313  15.3430113  44.8203833  80.7461313
  15.0760113  46.1443833  80.5101313  14.8420113  45.4203833  80.7011313
  30.4200113  34.4893833  81.9931313  30.0740113  35.1673833  82.4191313
  29.7840113  33.8913833  82.0091313  30.2750113  34.5013833  82.0581313
  25.7320113  47.2593833  88.0971313  26.4760113  47.7153833  88.0871313
  25.6110113  47.0453833  87.2601313  25.8240113  47.2953833  87.9721313
  15.5050113  43.8823833  84.2311313  15.9280113  43.5263833  83.5571313
  15.8290113  43.4603833  84.9231313  15.6150113  43.7673833  84.2341313
  18.7360113  46.7343833  83.5271313  19.5800113  46.8383833  83.3321313
  18.4390113  47.5523833  83.5951313  18.8170113  46.8703833  83.5081313
  22.5430113  36.1313833  81.6141313  22.8300113  35.8993833  80.8241313
  23.2750113  36.2103833  82.0831313  22.6930113  36.1083833  81.5671313
  23.2650113  36.4703833  76.7351313  23.5460113  37.2583833  76.9841313
  22.4890113  36.6353833  76.3721313  23.1920113  36.6113833  76.7181313
  27.3060113  48.4443833  78.2021313  27.9710113  48.2963833  77.6571313
  27.6660113  48.3613833  78.9921313  27.4580113  48.4103833  78.2381313
  17.7340113  47.9533833  89.2671313  18.0260113  47.8863833  90.0871313
  17.1080113  47.3483833  89.2221313  17.6850113  47.8543833  89.3821313
  30.0950113  32.8123833  87.3621313  30.8520113  32.8843833  86.9341313
  30.1580113  32.0393833  87.7611313  30.2160113  32.7093833  87.3571313
  12.6480113  34.1103833  91.2591313  12.6440113  34.6973833  91.9051313
  13.2420113  34.4223833  90.7021313  12.7350113  34.2433833  91.2721313
  24.9860113  44.4443833  91.8011313  24.9520113  44.8263833  92.5851313
  25.8400113  44.4023833  91.6301313  25.1070113  44.4943833  91.8921313
  22.1240113  44.6413833  76.5511313  21.9430113  45.1863833  77.2081313
  22.8900113  44.9313833  76.2501313  22.2100113  44.7653833  76.6041313
  25.6310113  32.5373833  77.6051313  26.1710113  31.8553833  77.6811313
  25.6930113  32.9353833  78.3791313  25.7200113  32.4953833  77.7311313
  13.5850113  33.7053833  80.1741313  13.4710113  32.8413833  80.2051313
  13.1100113  33.9993833  80.8441313  13.4980113  33.6213833  80.2771313
  15.7270113  46.1153833  88.3891313  15.0290113  45.6073833  88.5151313
  15.9870113  45.9103833  87.5811313  15.6620113  46.0103833  88.2881313
  22.8890113  34.9133833  78.9191313  22.3810113  34.2513833  78.6651313
  22.9410113  35.4173833  78.2091313  22.8220113  34.8903833  78.7771313
  23.4380113  47.6083833  89.2991313  24.2060113  47.5283833  88.8931313
  22.8550113  47.4873833  88.6611313  23.4650113  47.5783833  89.1451313
  22.8890113  31.8543833  78.8101313  22.4340113  31.4523833  78.1841313
  23.6620113  32.0093833  78.4351313  22.9360113  31.8183833  78.6621313
  29.7150113  48.2113833  82.2001313  29.2600113  48.9283833  82.4011313
  29.1010113  47.6403833  81.9581313  29.5570113  48.2333833  82.1941313
  21.4870113  34.2213833  83.3321313  21.5610113  34.7893833  82.6741313
  21.6080113  34.7133833  84.0421313  21.5150113  34.3783833  83.3401313
  26.7120113  44.0563833  81.7441313  27.4130113  43.5743833  81.9331313
  26.0520113  43.4873833  81.7891313  26.7180113  43.9013833  81.7781313
  17.0880113  44.9663833  90.9561313  17.9290113  45.0293833  90.7341313
  17.0510113  45.3633833  91.7321313  17.2070113  45.0343833  91.0381313
  16.0950113  30.0443833  81.6801313  16.6310113  30.7323833  81.6701313
  16.0980113  29.7703833  80.8521313  16.1740113  30.1053833  81.5561313
  19.0510113  40.4773833  85.7051313  19.2230113  40.2673833  86.5341313
  18.3960113  39.9433833  85.4891313  18.9800113  40.3673833  85.7961313
  25.2790113  34.3913833  89.2201313  25.1840113  34.7103833  90.0261313
  24.6860113  33.7523833  89.1821313  25.1770113  34.3433833  89.3341313
  19.8010113  40.4153833  88.2951313  19.8540113  41.2623833  88.4971313
  19.5160113  40.0453833  89.0321313  19.7670113  40.4853833  88.4331313
  25.9780113  41.1103833  87.4251313  25.4640113  40.6983833  87.9961313
  25.8520113  41.9543833  87.6061313  25.8840113  41.1743833  87.5361313
  26.5350113  30.3353833  82.0561313  26.5840113  30.0173833  82.8671313
  26.8580113  29.6913833  81.5631313  26.5900113  30.1933833  82.1031313
  28.9990113  34.5713833  90.3641313  29.7710113  34.3463833  90.7011313
  28.5240113  34.7883833  91.0641313  29.0430113  34.5703833  90.5171313
  16.5430113  33.8543833  83.3341313  16.8150113  33.4243833  82.6261313
  16.3670113  33.2183833  83.9051313  16.5570113  33.6973833  83.3141313
  29.2310113  41.5493833  77.5521313  29.3500113  41.2623833  78.3671313
  30.0380113  41.5703833  77.2221313  29.3670113  41.5103833  77.6241313
  16.3670113  41.2813833  82.8831313  17.2180113  41.2013833  82.7101313
  16.0100113  40.5993833  82.4711313  16.4400113  41.1683833  82.7961313
  15.1340113  48.0063833  84.1201313  14.4610113  47.5083833  83.8751313
  15.5370113  48.1913833  83.3691313  15.0940113  47.9603833  83.9731313
  14.6840113  34.9563833  86.4161313  15.5270113  35.1763833  86.3731313
  14.2950113  35.5293833  85.8851313  14.7510113  35.0733833  86.3311313
  31.4650113  46.0583833  91.8061313  30.7830113  46.3683833  91.3591313
  31.0960113  45.6003833  92.4511313  31.3090113  46.0363833  91.8351313
  18.7350113  41.2883833  81.1181313  19.4480113  41.7833833  81.2081313
  18.9570113  40.7213833  80.4921313  18.8730113  41.2773833  81.0391313
  31.3130113  32.9473833  76.5901313  30.6510113  32.3793833  76.6131313
  31.1200113  33.4593833  75.9101313  31.1870113  32.9393833  76.4931313
  12.8910113  42.9313833  84.4381313  12.2240113  43.4193833  84.7141313
  13.5710113  43.4763833  84.4671313  12.8930113  43.0833833  84.4831313
  31.6360113  37.3253833  89.1461313  31.8510113  36.5253833  88.8701313
  30.7860113  37.3853833  88.9571313  31.5420113  37.2163833  89.0771313
  12.9570113  39.6153833  79.5411313  12.7720113  38.7763833  79.6931313
  13.6160113  39.5793833  78.9711313  13.0270113  39.4863833  79.4791313
  29.3150113  32.5053833  78.8691313  30.0610113  32.0983833  79.0681313
  29.5780113  33.2203833  78.4441313  29.4640113  32.5513833  78.8361313
  23.2580113  44.9913833  83.4451313  22.7350113  45.6253833  83.1521313
  23.5680113  44.6273833  82.7161313  23.2260113  45.0313833  83.2941313
  13.1290113  43.7793833  79.1161313  13.6810113  44.3483833  79.4801313
  12.8970113  43.2643833  79.7811313  13.1760113  43.7873833  79.2681313
  17.3330113  42.7793833  86.2051313  17.8000113  43.0683833  86.8831313
  17.9050113  42.3013833  85.7511313  17.4870113  42.7513833  86.2381313
  25.7690113  34.7933833  83.9421313  26.1130113  34.9453833  84.7291313
  25.3160113  34.0553833  84.0551313  25.7530113  34.7063833  84.0751313
  12.9590113  42.2283833  76.7441313  13.7150113  41.7963833  76.8021313
  12.9740113  42.7603833  77.4351313  13.0730113  42.2433833  76.8551313
  13.8990113  40.4493833  84.7491313  14.3300113  40.3203833  84.0021313
  13.6940113  41.2973833  84.7231313  13.9320113  40.5553833  84.6351313
  20.2450113  34.0133833  78.3991313  20.2430113  33.8963833  77.5341313
  20.0640113  34.8613833  78.4911313  20.2180113  34.1213833  78.2851313
  29.2990113  46.4403833  89.8961313  28.6280113  46.9543833  90.1141313
  29.3620113  46.5403833  89.0321313  29.2090113  46.5313833  89.8011313
  17.9830113  43.9653833  83.0311313  18.1090113  44.8083833  83.2181313
  18.6510113  43.5663833  83.4271313  18.1010113  44.0313833  83.1171313
  16.5980113  36.8453833  78.0331313  16.4700113  36.3973833  78.7711313
  16.0160113  36.5033833  77.4811313  16.4930113  36.7283833  78.0611313
  16.7650113  38.6753833  84.6321313  15.9840113  38.6163833  84.2491313
  16.8370113  37.9233833  85.0691313  16.6600113  38.5563833  84.6401313
  17.1950113  38.4123833  88.1001313  17.2200113  37.7373833  87.5491313
  16.5490113  38.9083833  87.7881313  17.1040113  38.3853833  87.9731313
  27.0900113  36.1253833  86.4961313  26.4280113  36.4533833  86.9591313
  27.2770113  36.7593833  85.9271313  27.0200113  36.2673833  86.4801313
  21.2950113  47.1893833  87.4921313  21.0180113  46.5483833  86.9691313
  21.0870113  47.9153833  87.0541313  21.2240113  47.2023833  87.3501313
  23.7350113  32.0313833  89.9251313  23.8840113  31.2063833  89.6821313
  24.1140113  32.0863833  90.7091313  23.8130113  31.9173833  90.0051313
  25.2830113  34.0943833  80.0071313  25.7730113  34.8113833  79.9301313
  24.4930113  34.3553833  79.7441313  25.2390113  34.2383833  79.9571313
  26.5970113  41.9723833  91.9171313  27.0810113  42.6903833  92.0151313
  26.9910113  41.5453833  91.2661313  26.7270113  42.0153833  91.8351313
  21.8650113  35.5643833  85.7321313  22.3450113  36.2633833  85.9401313
  22.2380113  34.9173833  86.1831313  21.9910113  35.5723833  85.8291313
  24.0540113  38.7333833  78.0061313  24.0460113  39.4553833  77.5161313
  23.4150113  38.8683833  78.5831313  23.9590113  38.8603833  78.0191313
  29.0260113  42.6033833  81.9871313  29.3820113  42.2533833  82.7021313
  29.0180113  41.9423833  81.4171313  29.0780113  42.4533833  82.0081313
  25.0710113  45.6693833  85.8311313  24.4680113  45.3733833  85.2741313
  25.6160113  46.1213833  85.3221313  25.0620113  45.6923833  85.6731313
  25.0840113  42.5203833  85.2311313  24.2870113  42.7443833  85.5051313
  25.3420113  41.9263833  85.8161313  25.0040113  42.4653833  85.3581313
  18.9760113  47.3323833  79.6791313  18.8290113  46.5563833  80.0501313
  19.6650113  47.1853833  79.1641313  19.0560113  47.1953833  79.6581313
  18.6470113  31.0753833  77.6671313  18.7440113  30.9683833  78.5281313
  17.9390113  31.5813833  77.6021313  18.5570113  31.1343833  77.7851313
  21.2680113  46.8483833  78.0811313  21.8900113  47.0113833  78.6711313
  21.3040113  47.5393833  77.5491313  21.3650113  46.9743833  78.0901313
  28.3440113  40.5183833  90.0771313  28.3990113  40.6433833  89.2151313
  29.0970113  40.8383833  90.3791313  28.4630113  40.5833833  89.9941313
  15.7690113  39.3823833  78.9101313  16.0930113  38.6033833  78.6881313
  16.4150113  39.7503833  79.3651313  15.9120113  39.3213833  78.9441313
  24.0750113  40.3243833  89.6771313  23.9200113  40.9343833  90.2811313
  24.6090113  39.7663833  90.0831313  24.1310113  40.3323833  89.8261313
  12.7660113  31.0433833  79.8781313  12.8950113  30.3353833  79.3861313
  12.3990113  30.7253833  80.6031313  12.7310113  30.8913833  79.9131313
  22.4590113  38.7243833  80.3351313  22.5180113  39.3743833  80.9141313
  22.2700113  38.0283833  80.8261313  22.4400113  38.7173833  80.4931313
  27.6850113  43.0533833  86.2041313  27.2060113  43.3513833  85.5381313
  27.3290113  42.2773833  86.3821313  27.5620113  42.9823833  86.1321313
  16.9550113  33.2413833  76.8471313  16.4440113  33.2943833  76.1411313
  17.7390113  33.4813833  76.5511313  16.9950113  33.2843833  76.6991313
  21.6820113  40.7713833  84.7661313  20.8350113  40.5773833  84.8471313
  22.0060113  40.6063833  85.5591313  21.6040113  40.7183833  84.8951313
  18.4340113  47.5013833  75.6521313  18.8730113  46.8043833  75.9401313
  18.6410113  48.1253833  76.2251313  18.5300113  47.4903833  75.7791313
  15.5300113  40.4643833  87.0821313  16.2520113  40.9523833  87.0451313
  15.2600113  40.4343833  86.2531313  15.5970113  40.5323833  86.9541313
  18.7600113  35.6353833  83.8171313  19.6060113  35.4453833  83.9151313
  18.3900113  34.8583833  83.6791313  18.8300113  35.4923833  83.8111313
  31.3770113  47.2193833  78.1441313  32.0710113  46.7523833  77.8961313
  30.8380113  46.6213833  78.4811313  31.4000113  47.0613833  78.1571313
  13.5810113  36.9733833  80.4721313  14.0700113  36.6813833  81.1331313
  13.7100113  36.3803833  79.8451313  13.6720113  36.8423833  80.4771313
  28.6160113  39.9953833  87.3231313  28.6090113  39.2193833  87.7211313
  27.7750113  40.2293833  87.3161313  28.4910113  39.9153833  87.3811313
  18.1060113  38.4073833  75.9581313  17.4960113  38.0023833  76.4321313
  17.7200113  38.5253833  75.1851313  17.9590113  38.3643833  75.9141313
  14.9250113  41.5163833  91.3601313  14.5040113  40.9983833  90.7991313
  14.5730113  42.3023833  91.2171313  14.8110113  41.5563833  91.2561313
  29.8720113  40.0663833  84.7601313  29.5860113  40.4673833  85.4801313
  30.7320113  40.0043833  84.8871313  29.9570113  40.1163833  84.8851313
  19.5610113  36.8683833  78.6681313  19.8330113  37.6943833  78.7351313
  18.6980113  36.9433833  78.5721313  19.4740113  37.0013833  78.6631313
  13.0410113  32.8383833  85.2041313  13.0850113  33.1823833  84.4031313
  13.7960113  33.0753833  85.5711313  13.1590113  32.9243833  85.1401313
  31.0030113  45.6993833  85.2891313  31.2930113  45.9563833  84.5081313
  31.6980113  45.7953833  85.8081313  31.1490113  45.7513833  85.2501313
  28.2940113  37.8783833  91.7411313  28.6130113  38.6643833  91.9441313
  27.9240113  37.6083833  92.4841313  28.2870113  37.9543833  91.8811313
  27.6080113  44.3023833  77.2711313  27.9420113  43.4963833  77.3061313
  26.8530113  44.2303833  77.7011313  27.5460113  44.1723833  77.3401313
  28.0900113  36.1363833  82.9301313  27.3450113  35.8133833  83.2481313
  28.0920113  36.9623833  83.2101313  27.9800113  36.2103833  83.0181313
  30.5300113  42.0963833  90.6821313  31.1580113  41.5473833  90.4261313
  30.4690113  42.6613833  90.0201313  30.6140113  42.0993833  90.5461313
  24.9820113  42.1773833  76.6741313  25.6660113  41.6633833  76.5051313
  24.5650113  42.2233833  75.9091313  25.0210113  42.1083833  76.5361313
  19.6640113  43.3273833  87.9781313  19.3660113  43.9193833  88.5451313
  19.7190113  43.7693833  87.2291313  19.6280113  43.4803833  87.9511313
  17.6430113  42.2773833  91.3761313  16.8370113  41.9873833  91.5431313
  17.5540113  43.1453833  91.3821313  17.5110113  42.3623833  91.4011313
  27.0020113  32.4663833  90.3911313  27.7460113  32.9183833  90.3281313
  26.4360113  32.9363833  89.9221313  27.0290113  32.6033833  90.3131313
  22.1800113  39.7503833  87.4691313  22.6560113  40.1243833  88.0971313
  21.3570113  39.8843833  87.7281313  22.1290113  39.8253833  87.6001313
  18.8900113  35.3533833  90.2101313  19.0510113  34.6093833  90.6371313
  18.8450113  35.1043833  89.3751313  18.9070113  35.2063833  90.1501313
  21.4440113  47.1433833  82.6971313  21.9900113  47.8223833  82.7511313
  21.0940113  47.2253833  81.9021313  21.4730113  47.2563833  82.5871313
  28.2870113  30.4463833  88.0611313  28.0070113  31.2713833  88.0171313
  29.0030113  30.4993833  88.5571313  28.3520113  30.5763833  88.1281313
  20.6420113  31.1613833  90.0901313  21.3470113  31.4813833  89.6881313
  20.8830113  30.3543833  90.3171313  20.7810113  31.0893833  90.0641313
  19.6270113  45.3713833  86.0861313  19.0030113  45.9533833  85.9041313
  19.8750113  45.0853833  85.3001313  19.5710113  45.4153833  85.9431313
  27.8450113  44.5553833  91.5791313  28.1910113  44.8253833  92.3331313
  28.1390113  45.1373833  90.9991313  27.9400113  44.6813833  91.6051313
  29.7080113  36.7013833  76.9181313  30.0860113  37.3783833  76.5181313
  28.8660113  36.9253833  76.9491313  29.6390113  36.8343833  76.8631313
  21.2210113  40.1473833  76.0011313  20.4160113  39.9703833  75.7161313
  21.1880113  40.9983833  76.1931313  21.0970113  40.2463833  75.9881313
  17.1510113  36.2143833  86.1511313  17.5910113  36.1113833  85.4051313
  17.6960113  35.9013833  86.7561313  17.2960113  36.1533833  86.1301313
  25.1670113  35.3163833  91.7431313  24.5190113  35.7863833  92.0911313
  25.7320113  35.2273833  92.4021313  25.1550113  35.3723833  91.8921313
  24.8550113  36.8533833  88.0411313  25.1570113  37.2733833  88.7441313
  24.8910113  36.0133833  88.2731313  24.9050113  36.7913833  88.1791313
  22.2800113  47.0203833  91.9661313  22.7580113  46.4203833  91.5501313
  21.9290113  46.5773833  92.6311313  22.2990113  46.8663833  92.0031313
  27.4030113  36.3003833  80.2931313  27.6100113  36.0993833  81.1171313
  28.1590113  36.5683833  79.9511313  27.5450113  36.3103833  80.3641313
  20.6980113  31.1993833  86.1981313  19.8720113  31.0503833  86.4351313
  20.6580113  31.2343833  85.3271313  20.5700113  31.1823833  86.1041313
  28.4250113  32.3833833  81.7671313  27.7110113  31.9123833  81.9381313
  28.2630113  32.7243833  80.9811313  28.2960113  32.3643833  81.6761313
  28.8680113  40.3273833  80.1471313  29.3440113  39.5983833  80.0991313
  28.0470113  40.0413833  80.0711313  28.8170113  40.1773833  80.1281313
  22.3390113  42.2393833  90.9861313  21.5440113  42.1753833  91.3371313
  22.4100113  43.0863833  90.7911313  22.2320113  42.3543833  91.0091313
  13.2630113  31.5973833  92.2331313  13.1230113  32.3923833  91.9021313
  12.4770113  31.3543833  92.5221313  13.1260113  31.6793833  92.2271313
  18.1690113  48.4463833  86.3031313  18.1800113  48.5053833  87.1731313
  17.7440113  47.6993833  86.1531313  18.1080113  48.3443833  86.4091313
  16.3270113  34.3413833  79.4581313  16.4530113  34.0123833  78.6601313
  15.5150113  34.0923833  79.6571313  16.2260113  34.2563833  79.3701313
  25.0840113  41.4943833  82.5021313  25.1600113  41.8353833  83.3011313
  25.2530113  40.6473833  82.6231313  25.1200113  41.4193833  82.6381313
  22.6060113  40.7683833  82.0671313  22.3080113  40.4533833  82.8241313
  23.3010113  41.2413833  82.3021313  22.6650113  40.7913833  82.2141313
  22.8280113  44.8863833  90.0941313  23.5150113  44.7723833  90.6191313
  22.9620113  45.6773833  89.7501313  22.9490113  44.9863833  90.1211313
  31.0040113  37.4953833  91.9051313  30.1490113  37.3733833  92.0311313
  31.1570113  37.1003833  91.1421313  30.9000113  37.4183833  91.8111313
  25.5170113  38.1603833  90.4811313  25.2620113  37.4413833  90.9031313
  26.3380113  38.2763833  90.7511313  25.6010113  38.0713833  90.5831313
  14.9330113  47.9443833  91.7451313  14.2790113  47.3753833  91.8431313
  14.5580113  48.7173833  91.8961313  14.7810113  47.9743833  91.7821313
  26.5350113  47.7243833  84.5971313  26.0840113  48.3673833  84.9761313
  27.2430113  47.6453833  85.1021313  26.5730113  47.8073833  84.7281313
  23.2360113  42.8143833  87.5271313  22.5420113  43.2163833  87.8701313
  23.9130113  43.2473833  87.8661313  23.2330113  42.9373833  87.6281313
  16.3040113  36.3523833  89.8741313  16.6790113  36.9713833  89.3871313
  16.9780113  35.8783833  90.1591313  16.4590113  36.3743833  89.8441313
  14.0790113  34.8003833  89.1491313  14.1560113  34.6313833  88.2961313
  14.8250113  35.2063833  89.3461313  14.2000113  34.8353833  89.0521313
  29.6380113  37.4403833  79.5891313  29.7410113  37.3823833  78.7251313
  30.3790113  37.1083833  79.9071313  29.7630113  37.3833833  79.5081313
  16.6330113  32.2103833  91.5601313  16.5520113  31.3663833  91.7661313
  16.3190113  32.2543833  90.7471313  16.5750113  32.0923833  91.4701313
  23.5580113  44.4053833  80.6961313  23.3530113  45.2383833  80.5371313
  22.7830113  44.0233833  80.8181313  23.4130113  44.4723833  80.6911313
  28.7400113  37.5863833  88.9451313  28.7380113  36.7233833  89.0691313
  28.8070113  37.9103833  89.7521313  28.7500113  37.5063833  89.0821313
  13.4760113  40.0263833  89.3731313  13.7960113  40.2453833  88.5921313
  13.3760113  39.1613833  89.3181313  13.5080113  39.9313833  89.2501313
  14.9320113  35.9623833  75.9911313  14.2600113  35.9763833  76.5471313
  15.0270113  35.1143833  75.8071313  14.8470113  35.8393833  76.0461313
  23.6130113  32.5763833  83.5811313  22.9130113  33.0943833  83.5251313
  23.6510113  32.1963833  82.7971313  23.5150113  32.5973833  83.4571313
  18.9200113  44.6673833  77.1051313  19.3610113  44.7473833  77.8531313
  18.1150113  44.4513833  77.3631313  18.8660113  44.6473833  77.2541313
  27.2110113  33.0923833  86.3811313  28.0660113  33.1913833  86.5261313
  26.8420113  33.6453833  86.9461313  27.2830113  33.1893833  86.4861313
  18.2390113  39.3183833  90.7581313  17.8430113  40.0923833  90.8331313
  17.8330113  38.9453833  90.0821313  18.1210113  39.3773833  90.6691313
  27.5150113  38.3723833  84.8721313  28.1810113  38.9133833  85.0321313
  27.1700113  38.6833833  84.1331313  27.5620113  38.4983833  84.7871313
  27.8280113  46.4383833  80.6791313  27.6540113  45.7843833  81.2291313
  28.5410113  46.1673833  80.2561313  27.9080113  46.3013833  80.6981313
  16.2490113  43.7373833  77.7061313  16.0050113  43.4303833  78.4861313
  16.2160113  43.0343833  77.1901313  16.2080113  43.5883833  77.7451313
  19.0680113  41.9823833  76.4491313  18.2500113  41.7143833  76.5891313
  19.0400113  42.8343833  76.6341313  18.9430113  42.0693833  76.4971313
  18.6680113  32.2953833  88.2081313  17.8040113  32.3793833  88.2881313
  18.8880113  31.7813833  88.8771313  18.5730113  32.2323833  88.3191313
  30.6860113  30.9303833  89.5371313  30.6340113  30.8863833  90.4071313
  31.3730113  30.4273833  89.3471313  30.7800113  30.8503833  89.6371313
  22.7710113  33.0433833  86.5821313  22.0340113  32.5893833  86.6951313
  23.3420113  32.6413833  87.1051313  22.7460113  32.9163833  86.6761313
  25.5030113  43.8913833  88.3701313  25.7090113  44.1923833  89.1621313
  25.4420113  44.6133833  87.8851313  25.5240113  44.0423833  88.4151313
  20.2740113  37.3723833  91.7861313  19.9520113  36.7963833  91.2161313
  19.9150113  38.1273833  91.5401313  20.1740113  37.3983833  91.6661313
  21.0700113  30.6243833  76.4131313  21.1480113  30.8713833  75.5801313
  20.3270113  31.0013833  76.6711313  20.9720113  30.7163833  76.3281313
  30.3150113  42.5303833  87.8281313  30.2830113  41.6683833  87.6931313
  29.6220113  42.8323833  87.3941313  30.2080113  42.4473833  87.7441313
  28.4200113  45.7903833  86.6251313  28.9470113  45.7073833  85.9341313
  28.0290113  45.0123833  86.6791313  28.4400113  45.6633833  86.5311313
  15.8880113  32.3783833  88.8561313  15.5450113  31.6113833  88.6221313
  15.1930113  32.9023833  88.9201313  15.7350113  32.3423833  88.8311313
  24.9340113  31.2343833  85.8331313  25.6040113  31.7783833  85.9601313
  24.4310113  31.6583833  85.2601313  24.9590113  31.3773833  85.7671313
  24.2930113  37.0423833  83.3261313  24.8440113  36.4353833  83.6261313
  23.8680113  37.3053833  84.0411313  24.3120113  36.9913833  83.4751313
  14.5410113  35.6923833  82.8121313  14.1730113  35.9943833  83.5431313
  15.0750113  35.0633833  83.0961313  14.5650113  35.6443833  82.9621313
  14.2290113  44.1003833  90.3231313  13.6550113  44.5163833  90.8321313
  14.9620113  44.5653833  90.4181313  14.2530113  44.2303833  90.4121313
  26.2630113  38.8733833  79.8881313  26.3310113  38.0233833  80.0691313
  25.4400113  38.9593833  79.6101313  26.1510113  38.7603833  79.8741313
  16.0150113  47.3673833  79.0981313  15.8700113  47.5233833  78.2521313
  16.8810113  47.4463833  79.1761313  16.1220113  47.4023833  78.9851313
  20.1820113  39.7643833  78.8261313  20.2820113  39.9033833  77.9711313
  21.0000113  39.7043833  79.1221313  20.3170113  39.7753833  78.7431313
  29.3420113  47.8283833  76.3061313  29.9790113  47.6943833  76.8871313
  29.0010113  47.0343833  76.1891313  29.3860113  47.6913833  76.3741313
  25.4170113  44.0933833  78.6281313  25.1660113  43.9653833  79.4541313
  25.1000113  43.3983833  78.2071313  25.3330113  43.9723833  78.6881313
  30.0610113  35.7513833  86.7481313  29.2280113  36.0013833  86.6761313
  30.0050113  34.9113833  86.9771313  29.9300113  35.6643833  86.7711313
  19.3210113  32.7393833  91.9421313  19.5550113  32.1633833  91.3291313
  18.4790113  32.5583833  92.0831313  19.2310113  32.6273833  91.8721313
  16.7020113  46.1823833  85.5751313  16.6230113  45.3723833  85.2591313
  16.2580113  46.6693833  85.0031313  16.6250113  46.1343833  85.4441313
  22.3030113  42.3013833  78.0581313  23.0200113  41.9543833  77.7021313
  22.2690113  43.1013833  77.7101313  22.4040113  42.3683833  77.9541313
  14.2740113  48.4263833  89.1561313  14.7670113  48.3703833  89.8741313
  14.4620113  47.6933833  88.7211313  14.3750113  48.3093833  89.1981313
  23.7120113  30.9423833  62.2968903  23.4670113  31.4303833  61.6168903
  24.5750113  30.8693833  62.1968903  23.8030113  31.0033833  62.1818903
  23.5210113  37.8583833  66.9678903  22.9970113  38.4543833  67.3308903
  23.9180113  37.4903833  67.6518903  23.5020113  37.8923833  67.1228903
  13.3900113  41.9983833  62.4238903  12.9490113  42.1163833  63.1668903
  13.1070113  41.2233833  62.1388903  13.2830113  41.9013833  62.4918903
  13.1330113  35.7903833  58.9308903  12.3550113  35.9523833  58.5708903
  13.1720113  34.9193833  58.9528903  13.0240113  35.6853833  58.8808903
  16.2720113  41.0533833  57.6028903  15.8800113  40.6823833  56.9168903
  16.1920113  40.4553833  58.2318903  16.2020113  40.9103833  57.5938903
  15.8990113  42.6943833  61.5028903  16.5070113  42.5243833  62.1058903
  15.1480113  42.5543833  61.9238903  15.8780113  42.6483833  61.6538903
  20.1810113  32.0293833  61.4518903  20.1110113  32.7063833  60.9058903
  20.9220113  31.6413833  61.2028903  20.2800113  32.0723833  61.3338903
  14.7900113  45.7853833  57.5798903  15.2570113  45.8693833  56.8478903
  15.2450113  45.2073833  58.0488903  14.9260113  45.7123833  57.5408903
  13.3300113  44.7333833  68.6788903  13.4590113  44.4533833  69.4948903
  12.7200113  44.1923833  68.3698903  13.2590113  44.6123833  68.7538903
  19.9040113  42.2583833  73.7458903  19.6680113  42.2553833  74.5858903
  19.1560113  42.1103833  73.3218903  19.7580113  42.2353833  73.8068903
  14.7760113  39.2543833  62.8808903  14.3140113  38.8623833  62.2538903
  15.4760113  38.7413833  62.9728903  14.8110113  39.1213833  62.8018903
  19.2840113  34.8643833  68.2278903  19.9620113  34.8823833  67.6788903
  19.2390113  34.0283833  68.4728903  19.3770113  34.7433833  68.1828903
  19.8860113  45.4503833  71.0088903  20.0240113  46.2103833  70.6018903
  20.6770113  45.0853833  71.0358903  20.0230113  45.5093833  70.9528903
  16.7770113  37.3543833  62.9038903  17.5940113  37.1673833  63.1468903
  16.3000113  36.7403833  63.2998903  16.8270113  37.2363833  62.9988903
  21.0380113  42.7843833  61.7248903  21.3690113  42.1403833  62.2108903
  21.2780113  42.5733833  60.9138903  21.1220113  42.6583833  61.6768903
  23.0060113  36.9153833  73.0638903  22.1580113  36.8163833  72.8858903
  23.0350113  37.6603833  73.5178903  22.8850113  37.0113833  73.1048903
  17.3740113  32.4483833  62.1698903  17.0780113  32.9493833  61.5198903
  18.2410113  32.5263833  62.1128903  17.4580113  32.5343833  62.0658903
  27.5640113  29.8753833  72.1778903  27.4060113  30.6443833  71.7958903
  26.7920113  29.6553833  72.5218903  27.4260113  29.9563833  72.1728903
  20.3530113  31.5903833  64.3928903  20.4260113  32.4503833  64.5218903
  20.3150113  31.5153833  63.5248903  20.3580113  31.7063833  64.2838903
  13.2320113  37.0153833  65.8938903  12.9760113  37.8463833  65.8188903
  12.5680113  36.6323833  66.3108903  13.0960113  37.0813833  65.9448903
  13.1420113  46.7253833  63.7938903  12.5500113  47.2833833  63.4808903
  13.5680113  46.4563833  63.0818903  13.1180113  46.7673833  63.6428903
  18.9820113  44.5693833  61.2738903  18.4030113  44.2943833  61.8658903
  19.6060113  43.9603833  61.2988903  18.9890113  44.4393833  61.3648903
  25.1250113  46.8573833  58.7958903  25.8520113  47.3293833  58.8978903
  25.3540113  46.0633833  59.0758903  25.2670113  46.8103833  58.8528903
  23.2930113  47.2493833  60.7858903  23.5070113  47.7763833  61.4478903
  24.0600113  47.0753833  60.4068903  23.4380113  47.3013833  60.8278903
  16.2610113  31.8323833  66.3848903  15.7400113  31.2043833  66.0768903
  16.8520113  31.3953833  66.8558903  16.2720113  31.6743833  66.4088903
  19.5670113  33.9653833  75.6828903  19.6840113  33.5113833  74.9468903
  19.8550113  34.7633833  75.4798903  19.6270113  34.0163833  75.5438903
  14.6870113  45.3953833  61.7248903  15.3430113  44.8203833  61.7398903
  15.0760113  46.1443833  61.5038903  14.8420113  45.4203833  61.6948903
  30.4200113  34.4893833  62.9868903  30.0740113  35.1673833  63.4128903
  29.7840113  33.8913833  63.0028903  30.2750113  34.5013833  63.0518903
  15.3000113  33.5623833  74.6668903  14.5220113  33.1723833  74.5948903
  15.7910113  33.1503833  74.0758903  15.2570113  33.4433833  74.5688903
  15.5050113  43.8823833  65.2248903  15.9280113  43.5263833  64.5508903
  15.8290113  43.4603833  65.9168903  15.6150113  43.7673833  65.2278903
  18.7360113  46.7343833  64.5208903  19.5800113  46.8383833  64.3258903
  18.4390113  47.5523833  64.5888903  18.8170113  46.8703833  64.5018903
  21.9490113  31.2053833  73.8348903  22.1270113  30.3963833  73.5598903
  21.8060113  31.6463833  73.0958903  21.9540113  31.1513833  73.6848903
  22.5430113  36.1313833  62.6078903  22.8300113  35.8993833  61.8178903
  23.2750113  36.2103833  63.0768903  22.6930113  36.1083833  62.5608903
  23.2650113  36.4703833  57.7288903  23.5460113  37.2583833  57.9778903
  22.4890113  36.6353833  57.3658903  23.1920113  36.6113833  57.7118903
  17.7340113  47.9533833  70.2608903  18.0260113  47.8863833  71.0808903
  17.1080113  47.3483833  70.2158903  17.6850113  47.8543833  70.3758903
  30.0950113  32.8123833  68.3558903  30.8520113  32.8843833  67.9278903
  30.1580113  32.0393833  68.7548903  30.2160113  32.7093833  68.3508903
  12.6480113  34.1103833  72.2528903  12.6440113  34.6973833  72.8988903
  13.2420113  34.4223833  71.6958903  12.7350113  34.2433833  72.2658903
  24.9860113  44.4443833  72.7948903  24.9520113  44.8263833  73.5788903
  25.8400113  44.4023833  72.6238903  25.1070113  44.4943833  72.8858903
  22.1240113  44.6413833  57.5448903  21.9430113  45.1863833  58.2018903
  22.8900113  44.9313833  57.2438903  22.2100113  44.7653833  57.5978903
  25.6310113  32.5373833  58.5988903  26.1710113  31.8553833  58.6748903
  25.6930113  32.9353833  59.3728903  25.7200113  32.4953833  58.7248903
  13.5850113  33.7053833  61.1678903  13.4710113  32.8413833  61.1988903
  13.1100113  33.9993833  61.8378903  13.4980113  33.6213833  61.2708903
  15.7270113  46.1153833  69.3828903  15.0290113  45.6073833  69.5088903
  15.9870113  45.9103833  68.5748903  15.6620113  46.0103833  69.2818903
  22.8890113  34.9133833  59.9128903  22.3810113  34.2513833  59.6588903
  22.9410113  35.4173833  59.2028903  22.8220113  34.8903833  59.7708903
  23.4380113  47.6083833  70.2928903  24.2060113  47.5283833  69.8868903
  22.8550113  47.4873833  69.6548903  23.4650113  47.5783833  70.1388903
  22.8890113  31.8543833  59.8038903  22.4340113  31.4523833  59.1778903
  23.6620113  32.0093833  59.4288903  22.9360113  31.8183833  59.6558903
  21.4870113  34.2213833  64.3258903  21.5610113  34.7893833  63.6678903
  21.6080113  34.7133833  65.0358903  21.5150113  34.3783833  64.3338903
  17.0880113  44.9663833  71.9498903  17.9290113  45.0293833  71.7278903
  17.0510113  45.3633833  72.7258903  17.2070113  45.0343833  72.0318903
  16.0950113  30.0443833  62.6738903  16.6310113  30.7323833  62.6638903
  16.0980113  29.7703833  61.8458903  16.1740113  30.1053833  62.5498903
  25.2790113  34.3913833  70.2138903  25.1840113  34.7103833  71.0198903
  24.6860113  33.7523833  70.1758903  25.1770113  34.3433833  70.3278903
  19.8010113  40.4153833  69.2888903  19.8540113  41.2623833  69.4908903
  19.5160113  40.0453833  70.0258903  19.7670113  40.4853833  69.4268903
  26.5350113  30.3353833  63.0498903  26.5840113  30.0173833  63.8608903
  26.8580113  29.6913833  62.5568903  26.5900113  30.1933833  63.0968903
  12.6220113  44.7863833  75.4998903  13.3780113  45.1353833  75.7578903
  12.7990113  43.9333833  75.4428903  12.7600113  44.7113833  75.5298903
  28.9990113  34.5713833  71.3578903  29.7710113  34.3463833  71.6948903
  28.5240113  34.7883833  72.0578903  29.0430113  34.5703833  71.5108903
  16.5430113  33.8543833  64.3278903  16.8150113  33.4243833  63.6198903
  16.3670113  33.2183833  64.8988903  16.5570113  33.6973833  64.3078903
  16.3670113  41.2813833  63.8768903  17.2180113  41.2013833  63.7038903
  16.0100113  40.5993833  63.4648903  16.4400113  41.1683833  63.7898903
  15.1340113  48.0063833  65.1138903  14.4610113  47.5083833  64.8688903
  15.5370113  48.1913833  64.3628903  15.0940113  47.9603833  64.9668903
  14.6840113  34.9563833  67.4098903  15.5270113  35.1763833  67.3668903
  14.2950113  35.5293833  66.8788903  14.7510113  35.0733833  67.3248903
  31.4650113  46.0583833  72.7998903  30.7830113  46.3683833  72.3528903
  31.0960113  45.6003833  73.4448903  31.3090113  46.0363833  72.8288903
  18.7350113  41.2883833  62.1118903  19.4480113  41.7833833  62.2018903
  18.9570113  40.7213833  61.4858903  18.8730113  41.2773833  62.0328903
  12.8910113  42.9313833  65.4318903  12.2240113  43.4193833  65.7078903
  13.5710113  43.4763833  65.4608903  12.8930113  43.0833833  65.4768903
  20.5380113  36.6413833  75.5278903  20.0540113  37.2183833  75.9698903
  20.5100113  36.9363833  74.7068903  20.4620113  36.7703833  75.4718903
  31.6360113  37.3253833  70.1398903  31.8510113  36.5253833  69.8638903
  30.7860113  37.3853833  69.9508903  31.5420113  37.2163833  70.0708903
  12.9570113  39.6153833  60.5348903  12.7720113  38.7763833  60.6868903
  13.6160113  39.5793833  59.9648903  13.0270113  39.4863833  60.4728903
  29.3150113  32.5053833  59.8628903  30.0610113  32.0983833  60.0618903
  29.5780113  33.2203833  59.4378903  29.4640113  32.5513833  59.8298903
  13.1290113  43.7793833  60.1098903  13.6810113  44.3483833  60.4738903
  12.8970113  43.2643833  60.7748903  13.1760113  43.7873833  60.2618903
  17.3330113  42.7793833  67.1988903  17.8000113  43.0683833  67.8768903
  17.9050113  42.3013833  66.7448903  17.4870113  42.7513833  67.2318903
  25.7690113  34.7933833  64.9358903  26.1130113  34.9453833  65.7228903
  25.3160113  34.0553833  65.0488903  25.7530113  34.7063833  65.0688903
  12.9590113  42.2283833  57.7378903  13.7150113  41.7963833  57.7958903
  12.9740113  42.7603833  58.4288903  13.0730113  42.2433833  57.8488903
  13.8990113  40.4493833  65.7428903  14.3300113  40.3203833  64.9958903
  13.6940113  41.2973833  65.7168903  13.9320113  40.5553833  65.6288903
  20.2450113  34.0133833  59.3928903  20.2430113  33.8963833  58.5278903
  20.0640113  34.8613833  59.4848903  20.2180113  34.1213833  59.2788903
  17.9830113  43.9653833  64.0248903  18.1090113  44.8083833  64.2118903
  18.6510113  43.5663833  64.4208903  18.1010113  44.0313833  64.1108903
  16.1130113  37.4483833  73.8868903  15.5770113  36.9423833  74.3548903
  16.1330113  37.0583833  73.1068903  16.0360113  37.3153833  73.8408903
  16.5980113  36.8453833  59.0268903  16.4700113  36.3973833  59.7648903
  16.0160113  36.5033833  58.4748903  16.4930113  36.7283833  59.0548903
  16.7650113  38.6753833  65.6258903  15.9840113  38.6163833  65.2428903
  16.8370113  37.9233833  66.0628903  16.6600113  38.5563833  65.6338903
  17.1950113  38.4123833  69.0938903  17.2200113  37.7373833  68.5428903
  16.5490113  38.9083833  68.7818903  17.1040113  38.3853833  68.9668903
  27.0900113  36.1253833  67.4898903  26.4280113  36.4533833  67.9528903
  27.2770113  36.7593833  66.9208903  27.0200113  36.2673833  67.4738903
  21.2950113  47.1893833  68.4858903  21.0180113  46.5483833  67.9628903
  21.0870113  47.9153833  68.0478903  21.2240113  47.2023833  68.3438903
  23.7350113  32.0313833  70.9188903  23.8840113  31.2063833  70.6758903
  24.1140113  32.0863833  71.7028903  23.8130113  31.9173833  70.9988903
  25.2830113  34.0943833  61.0008903  25.7730113  34.8113833  60.9238903
  24.4930113  34.3553833  60.7378903  25.2390113  34.2383833  60.9508903
  14.9940113  39.7673833  74.6528903  14.9570113  40.2683833  73.9388903
  15.3250113  39.0153833  74.3578903  15.0370113  39.7293833  74.5038903
  26.5970113  41.9723833  72.9108903  27.0810113  42.6903833  73.0088903
  26.9910113  41.5453833  72.2598903  26.7270113  42.0153833  72.8288903
  20.8930113  44.8173833  74.0878903  21.2470113  44.6393833  74.8648903
  20.4570113  44.0883833  73.8888903  20.8810113  44.6833833  74.1738903
  21.8650113  35.5643833  66.7258903  22.3450113  36.2633833  66.9338903
  22.2380113  34.9173833  67.1768903  21.9910113  35.5723833  66.8228903
  18.9760113  47.3323833  60.6728903  18.8290113  46.5563833  61.0438903
  19.6650113  47.1853833  60.1578903  19.0560113  47.1953833  60.6518903
  18.6470113  31.0753833  58.6608903  18.7440113  30.9683833  59.5218903
  17.9390113  31.5813833  58.5958903  18.5570113  31.1343833  58.7788903
  21.2680113  46.8483833  59.0748903  21.8900113  47.0113833  59.6648903
  21.3040113  47.5393833  58.5428903  21.3650113  46.9743833  59.0838903
  28.3440113  40.5183833  71.0708903  28.3990113  40.6433833  70.2088903
  29.0970113  40.8383833  71.3728903  28.4630113  40.5833833  70.9878903
  24.5350113  45.8673833  75.3478903  24.6990113  46.1503833  76.1568903
  24.7980113  46.5283833  74.8428903  24.5980113  46.0073833  75.3928903
  15.7690113  39.3823833  59.9038903  16.0930113  38.6033833  59.6818903
  16.4150113  39.7503833  60.3588903  15.9120113  39.3213833  59.9378903
  24.0750113  40.3243833  70.6708903  23.9200113  40.9343833  71.2748903
  24.6090113  39.7663833  71.0768903  24.1310113  40.3323833  70.8198903
  12.7660113  31.0433833  60.8718903  12.8950113  30.3353833  60.3798903
  12.3990113  30.7253833  61.5968903  12.7310113  30.8913833  60.9068903
  22.4590113  38.7243833  61.3288903  22.5180113  39.3743833  61.9078903
  22.2700113  38.0283833  61.8198903  22.4400113  38.7173833  61.4868903
  16.9550113  33.2413833  57.8408903  16.4440113  33.2943833  57.1348903
  17.7390113  33.4813833  57.5448903  16.9950113  33.2843833  57.6928903
  18.7600113  35.6353833  64.8108903  19.6060113  35.4453833  64.9088903
  18.3900113  34.8583833  64.6728903  18.8300113  35.4923833  64.8048903
  13.5810113  36.9733833  61.4658903  14.0700113  36.6813833  62.1268903
  13.7100113  36.3803833  60.8388903  13.6720113  36.8423833  61.4708903
  18.1060113  38.4073833  56.9518903  17.4960113  38.0023833  57.4258903
  17.7200113  38.5253833  56.1788903  17.9590113  38.3643833  56.9078903
  14.9250113  41.5163833  72.3538903  14.5040113  40.9983833  71.7928903
  14.5730113  42.3023833  72.2108903  14.8110113  41.5563833  72.2498903
  19.5610113  36.8683833  59.6618903  19.8330113  37.6943833  59.7288903
  18.6980113  36.9433833  59.5658903  19.4740113  37.0013833  59.6568903
  27.5340113  33.9903833  74.2938903  27.0090113  34.4493833  74.8178903
  27.1730113  33.1953833  74.2878903  27.4030113  33.9403833  74.3698903
  13.0410113  32.8383833  66.1978903  13.0850113  33.1823833  65.3968903
  13.7960113  33.0753833  66.5648903  13.1590113  32.9243833  66.1338903
  26.0260113  37.5593833  74.3698903  26.0990113  37.6633833  75.2328903
  25.3920113  38.1173833  74.1488903  25.9430113  37.6573833  74.4648903
  28.2940113  37.8783833  72.7348903  28.6130113  38.6643833  72.9378903
  27.9240113  37.6083833  73.4778903  28.2870113  37.9543833  72.8748903
  30.9920113  38.4203833  75.4698903  30.9400113  38.0793833  74.6688903
  31.7290113  38.8873833  75.4478903  31.0930113  38.4393833  75.3478903
  30.5300113  42.0963833  71.6758903  31.1580113  41.5473833  71.4198903
  30.4690113  42.6613833  71.0138903  30.6140113  42.0993833  71.5398903
  19.6640113  43.3273833  68.9718903  19.3660113  43.9193833  69.5388903
  19.7190113  43.7693833  68.2228903  19.6280113  43.4803833  68.9448903
  17.6430113  42.2773833  72.3698903  16.8370113  41.9873833  72.5368903
  17.5540113  43.1453833  72.3758903  17.5110113  42.3623833  72.3948903
  27.0020113  32.4663833  71.3848903  27.7460113  32.9183833  71.3218903
  26.4360113  32.9363833  70.9158903  27.0290113  32.6033833  71.3068903
  22.1800113  39.7503833  68.4628903  22.6560113  40.1243833  69.0908903
  21.3570113  39.8843833  68.7218903  22.1290113  39.8253833  68.5938903
  18.8900113  35.3533833  71.2038903  19.0510113  34.6093833  71.6308903
  18.8450113  35.1043833  70.3688903  18.9070113  35.2063833  71.1438903
  21.4440113  47.1433833  63.6908903  21.9900113  47.8223833  63.7448903
  21.0940113  47.2253833  62.8958903  21.4730113  47.2563833  63.5808903
  28.2870113  30.4463833  69.0548903  28.0070113  31.2713833  69.0108903
  29.0030113  30.4993833  69.5508903  28.3520113  30.5763833  69.1218903
  20.6420113  31.1613833  71.0838903  21.3470113  31.4813833  70.6818903
  20.8830113  30.3543833  71.3108903  20.7810113  31.0893833  71.0578903
  19.6270113  45.3713833  67.0798903  19.0030113  45.9533833  66.8978903
  19.8750113  45.0853833  66.2938903  19.5710113  45.4153833  66.9368903
  23.9360113  42.0053833  74.0688903  24.6930113  42.2913833  73.7428903
  23.3890113  42.0573833  73.3908903  23.9670113  42.0553833  73.9198903
  27.8450113  44.5553833  72.5728903  28.1910113  44.8253833  73.3268903
  28.1390113  45.1373833  71.9928903  27.9400113  44.6813833  72.5988903
  21.2210113  40.1473833  56.9948903  20.4160113  39.9703833  56.7098903
  21.1880113  40.9983833  57.1868903  21.0970113  40.2463833  56.9818903
  17.1510113  36.2143833  67.1448903  17.5910113  36.1113833  66.3988903
  17.6960113  35.9013833  67.7498903  17.2960113  36.1533833  67.1238903
  25.1670113  35.3163833  72.7368903  24.5190113  35.7863833  73.0848903
  25.7320113  35.2273833  73.3958903  25.1550113  35.3723833  72.8858903
  24.8550113  36.8533833  69.0348903  25.1570113  37.2733833  69.7378903
  24.8910113  36.0133833  69.2668903  24.9050113  36.7913833  69.1728903
  22.2800113  47.0203833  72.9598903  22.7580113  46.4203833  72.5438903
  21.9290113  46.5773833  73.6248903  22.2990113  46.8663833  72.9968903
  20.6980113  31.1993833  67.1918903  19.8720113  31.0503833  67.4288903
  20.6580113  31.2343833  66.3208903  20.5700113  31.1823833  67.0978903
  28.4250113  32.3833833  62.7608903  27.7110113  31.9123833  62.9318903
  28.2630113  32.7243833  61.9748903  28.2960113  32.3643833  62.6698903
  22.3390113  42.2393833  71.9798903  21.5440113  42.1753833  72.3308903
  22.4100113  43.0863833  71.7848903  22.2320113  42.3543833  72.0028903
  13.2630113  31.5973833  73.2268903  13.1230113  32.3923833  72.8958903
  12.4770113  31.3543833  73.5158903  13.1260113  31.6793833  73.2208903
  18.1690113  48.4463833  67.2968903  18.1800113  48.5053833  68.1668903
  17.7440113  47.6993833  67.1468903  18.1080113  48.3443833  67.4028903
  16.3270113  34.3413833  60.4518903  16.4530113  34.0123833  59.6538903
  15.5150113  34.0923833  60.6508903  16.2260113  34.2563833  60.3638903
  22.8280113  44.8863833  71.0878903  23.5150113  44.7723833  71.6128903
  22.9620113  45.6773833  70.7438903  22.9490113  44.9863833  71.1148903
  31.0040113  37.4953833  72.8988903  30.1490113  37.3733833  73.0248903
  31.1570113  37.1003833  72.1358903  30.9000113  37.4183833  72.8048903
  25.5170113  38.1603833  71.4748903  25.2620113  37.4413833  71.8968903
  26.3380113  38.2763833  71.7448903  25.6010113  38.0713833  71.5768903
  14.9330113  47.9443833  72.7388903  14.2790113  47.3753833  72.8368903
  14.5580113  48.7173833  72.8898903  14.7810113  47.9743833  72.7758903
  23.4510113  39.3503833  74.6618903  23.7740113  40.0363833  74.2298903
  22.7470113  39.6733833  75.0638903  23.3940113  39.4993833  74.6568903
  28.6130113  45.4073833  75.1008903  29.3890113  45.0173833  75.1838903
  28.1440113  45.0713833  75.7558903  28.6580113  45.3003833  75.2098903
  16.3040113  36.3523833  70.8678903  16.6790113  36.9713833  70.3808903
  16.9780113  35.8783833  71.1528903  16.4590113  36.3743833  70.8378903
  14.0790113  34.8003833  70.1428903  14.1560113  34.6313833  69.2898903
  14.8250113  35.2063833  70.3398903  14.2000113  34.8353833  70.0458903
  16.6330113  32.2103833  72.5538903  16.5520113  31.3663833  72.7598903
  16.3190113  32.2543833  71.7408903  16.5750113  32.0923833  72.4638903
  28.7400113  37.5863833  69.9388903  28.7380113  36.7233833  70.0628903
  28.8070113  37.9103833  70.7458903  28.7500113  37.5063833  70.0758903
  13.4760113  40.0263833  70.3668903  13.7960113  40.2453833  69.5858903
  13.3760113  39.1613833  70.3118903  13.5080113  39.9313833  70.2438903
  14.9320113  35.9623833  56.9848903  14.2600113  35.9763833  57.5408903
  15.0270113  35.1143833  56.8008903  14.8470113  35.8393833  57.0398903
  24.6190113  32.3863833  73.7208903  24.7110113  33.0983833  74.2148903
  23.9820113  31.9413833  74.1178903  24.5380113  32.4253833  73.8528903
  23.6130113  32.5763833  64.5748903  22.9130113  33.0943833  64.5188903
  23.6510113  32.1963833  63.7908903  23.5150113  32.5973833  64.4508903
  18.9200113  44.6673833  58.0988903  19.3610113  44.7473833  58.8468903
  18.1150113  44.4513833  58.3568903  18.8660113  44.6473833  58.2478903
  27.2110113  33.0923833  67.3748903  28.0660113  33.1913833  67.5198903
  26.8420113  33.6453833  67.9398903  27.2830113  33.1893833  67.4798903
  18.2390113  39.3183833  71.7518903  17.8430113  40.0923833  71.8268903
  17.8330113  38.9453833  71.0758903  18.1210113  39.3773833  71.6628903
  16.2490113  43.7373833  58.6998903  16.0050113  43.4303833  59.4798903
  16.2160113  43.0343833  58.1838903  16.2080113  43.5883833  58.7388903
  19.0680113  41.9823833  57.4428903  18.2500113  41.7143833  57.5828903
  19.0400113  42.8343833  57.6278903  18.9430113  42.0693833  57.4908903
  18.6680113  32.2953833  69.2018903  17.8040113  32.3793833  69.2818903
  18.8880113  31.7813833  69.8708903  18.5730113  32.2323833  69.3128903
  30.6860113  30.9303833  70.5308903  30.6340113  30.8863833  71.4008903
  31.3730113  30.4273833  70.3408903  30.7800113  30.8503833  70.6308903
  22.7710113  33.0433833  67.5758903  22.0340113  32.5893833  67.6888903
  23.3420113  32.6413833  68.0988903  22.7460113  32.9163833  67.6698903
  25.5030113  43.8913833  69.3638903  25.7090113  44.1923833  70.1558903
  25.4420113  44.6133833  68.8788903  25.5240113  44.0423833  69.4088903
  25.0370113  48.1053833  73.6098903  24.2840113  48.0873833  73.1688903
  25.2050113  48.9573833  73.6938903  24.9510113  48.2283833  73.5568903
  20.2740113  37.3723833  72.7798903  19.9520113  36.7963833  72.2098903
  19.9150113  38.1273833  72.5338903  20.1740113  37.3983833  72.6598903
  21.0700113  30.6243833  57.4068903  21.1480113  30.8713833  56.5738903
  20.3270113  31.0013833  57.6648903  20.9720113  30.7163833  57.3218903
  18.7090113  47.7283833  73.0278903  18.7500113  47.8543833  73.8908903
  19.3600113  47.1683833  72.8718903  18.8110113  47.6643833  73.1328903
  15.8880113  32.3783833  69.8498903  15.5450113  31.6113833  69.6158903
  15.1930113  32.9023833  69.9138903  15.7350113  32.3423833  69.8248903
  16.3020113  46.1113833  74.3878903  16.8970113  46.5423833  74.8598903
  15.9380113  46.7353833  73.8988903  16.3360113  46.2673833  74.3848903
  24.2930113  37.0423833  64.3198903  24.8440113  36.4353833  64.6198903
  23.8680113  37.3053833  65.0348903  24.3120113  36.9913833  64.4688903
  14.5410113  35.6923833  63.8058903  14.1730113  35.9943833  64.5368903
  15.0750113  35.0633833  64.0898903  14.5650113  35.6443833  63.9558903
  14.2290113  44.1003833  71.3168903  13.6550113  44.5163833  71.8258903
  14.9620113  44.5653833  71.4118903  14.2530113  44.2303833  71.4058903
  16.0150113  47.3673833  60.0918903  15.8700113  47.5233833  59.2458903
  16.8810113  47.4463833  60.1698903  16.1220113  47.4023833  59.9788903
  20.1820113  39.7643833  59.8198903  20.2820113  39.9033833  58.9648903
  21.0000113  39.7043833  60.1158903  20.3170113  39.7753833  59.7368903
  29.5370113  40.2463833  74.0328903  30.1710113  40.0763833  74.6068903
  29.9540113  40.6493833  73.3808903  29.6920113  40.2813833  74.0218903
  30.1620113  34.8103833  74.7708903  29.9660113  35.4543833  75.3258903
  29.4400113  34.3203833  74.7628903  30.0270113  34.8333833  74.8518903
  30.0610113  35.7513833  67.7418903  29.2280113  36.0013833  67.6698903
  30.0050113  34.9113833  67.9708903  29.9300113  35.6643833  67.7648903
  19.3210113  32.7393833  72.9358903  19.5550113  32.1633833  72.3228903
  18.4790113  32.5583833  73.0768903  19.2310113  32.6273833  72.8658903
  26.9480113  40.3573833  75.3878903  27.8190113  40.3213833  75.3518903
  26.7290113  40.7773833  74.6558903  27.0450113  40.4133833  75.2748903
  16.7020113  46.1823833  66.5688903  16.6230113  45.3723833  66.2528903
  16.2580113  46.6693833  65.9968903  16.6250113  46.1343833  66.4378903
  22.3030113  42.3013833  59.0518903  23.0200113  41.9543833  58.6958903
  22.2690113  43.1013833  58.7038903  22.4040113  42.3683833  58.9478903
  14.2740113  48.4263833  70.1498903  14.7670113  48.3703833  70.8678903
  14.4620113  47.6933833  69.7148903  14.3750113  48.3093833  70.1918903
  23.7120113  30.9423833  43.2906493  23.4670113  31.4303833  42.6106493
  24.5750113  30.8693833  43.1906493  23.8030113  31.0033833  43.1756493
  23.5210113  37.8583833  47.9616493  22.9970113  38.4543833  48.3246493
  23.9180113  37.4903833  48.6456493  23.5020113  37.8923833  48.1166493
  13.3900113  41.9983833  43.4176493  12.9490113  42.1163833  44.1606493
  13.1070113  41.2233833  43.1326493  13.2830113  41.9013833  43.4856493
  29.6650113  45.2993833  40.9326493  30.3660113  44.7803833  40.9286493
  29.0780113  44.8543833  40.4636493  29.6820113  45.1563833  40.8626493
  13.1330113  35.7903833  39.9246493  12.3550113  35.9523833  39.5646493
  13.1720113  34.9193833  39.9466493  13.0240113  35.6853833  39.8746493
  16.2720113  41.0533833  38.5966493  15.8800113  40.6823833  37.9106493
  16.1920113  40.4553833  39.2256493  16.2020113  40.9103833  38.5876493
  26.1920113  38.9253833  44.6376493  26.2720113  38.9293833  43.7686493
  25.6080113  38.2933833  44.7866493  26.1170113  38.8323833  44.5316493
  15.8990113  42.6943833  42.4966493  16.5070113  42.5243833  43.0996493
  15.1480113  42.5543833  42.9176493  15.8780113  42.6483833  42.6476493
  20.1810113  32.0293833  42.4456493  20.1110113  32.7063833  41.8996493
  20.9220113  31.6413833  42.1966493  20.2800113  32.0723833  42.3276493
  14.7900113  45.7853833  38.5736493  15.2570113  45.8693833  37.8416493
  15.2450113  45.2073833  39.0426493  14.9260113  45.7123833  38.5346493
  13.3300113  44.7333833  49.6726493  13.4590113  44.4533833  50.4886493
  12.7200113  44.1923833  49.3636493  13.2590113  44.6123833  49.7476493
  19.9040113  42.2583833  54.7396493  19.6680113  42.2553833  55.5796493
  19.1560113  42.1103833  54.3156493  19.7580113  42.2353833  54.8006493
  14.7760113  39.2543833  43.8746493  14.3140113  38.8623833  43.2476493
  15.4760113  38.7413833  43.9666493  14.8110113  39.1213833  43.7956493
  19.2840113  34.8643833  49.2216493  19.9620113  34.8823833  48.6726493
  19.2390113  34.0283833  49.4666493  19.3770113  34.7433833  49.1766493
  19.8860113  45.4503833  52.0026493  20.0240113  46.2103833  51.5956493
  20.6770113  45.0853833  52.0296493  20.0230113  45.5093833  51.9466493
  16.7770113  37.3543833  43.8976493  17.5940113  37.1673833  44.1406493
  16.3000113  36.7403833  44.2936493  16.8270113  37.2363833  43.9926493
  20.9810113  43.3353833  46.5076493  21.3290113  42.5363833  46.5376493
  21.6460113  43.8393833  46.2526493  21.1310113  43.2913833  46.4746493
  21.0380113  42.7843833  42.7186493  21.3690113  42.1403833  43.2046493
  21.2780113  42.5733833  41.9076493  21.1220113  42.6583833  42.6706493
  17.3740113  32.4483833  43.1636493  17.0780113  32.9493833  42.5136493
  18.2410113  32.5263833  43.1066493  17.4580113  32.5343833  43.0596493
  27.5640113  29.8753833  53.1716493  27.4060113  30.6443833  52.7896493
  26.7920113  29.6553833  53.5156493  27.4260113  29.9563833  53.1666493
  20.3530113  31.5903833  45.3866493  20.4260113  32.4503833  45.5156493
  20.3150113  31.5153833  44.5186493  20.3580113  31.7063833  45.2776493
  25.0260113  34.5163833  37.6856493  24.5760113  35.1973833  37.9926493
  25.1400113  34.0123833  38.3886493  24.9770113  34.5423833  37.8346493
  13.2320113  37.0153833  46.8876493  12.9760113  37.8463833  46.8126493
  12.5680113  36.6323833  47.3046493  13.0960113  37.0813833  46.9386493
  13.1420113  46.7253833  44.7876493  12.5500113  47.2833833  44.4746493
  13.5680113  46.4563833  44.0756493  13.1180113  46.7673833  44.6366493
  18.9820113  44.5693833  42.2676493  18.4030113  44.2943833  42.8596493
  19.6060113  43.9603833  42.2926493  18.9890113  44.4393833  42.3586493
  25.1250113  46.8573833  39.7896493  25.8520113  47.3293833  39.8916493
  25.3540113  46.0633833  40.0696493  25.2670113  46.8103833  39.8466493
  23.2930113  47.2493833  41.7796493  23.5070113  47.7763833  42.4416493
  24.0600113  47.0753833  41.4006493  23.4380113  47.3013833  41.8216493
  16.2610113  31.8323833  47.3786493  15.7400113  31.2043833  47.0706493
  16.8520113  31.3953833  47.8496493  16.2720113  31.6743833  47.4026493
  19.5670113  33.9653833  56.6766493  19.6840113  33.5113833  55.9406493
  19.8550113  34.7633833  56.4736493  19.6270113  34.0163833  56.5376493
  14.6870113  45.3953833  42.7186493  15.3430113  44.8203833  42.7336493
  15.0760113  46.1443833  42.4976493  14.8420113  45.4203833  42.6886493
  25.7320113  47.2593833  50.0846493  26.4760113  47.7153833  50.0746493
  25.6110113  47.0453833  49.2476493  25.8240113  47.2953833  49.9596493
  15.3000113  33.5623833  55.6606493  14.5220113  33.1723833  55.5886493
  15.7910113  33.1503833  55.0696493  15.2570113  33.4433833  55.5626493
  15.5050113  43.8823833  46.2186493  15.9280113  43.5263833  45.5446493
  15.8290113  43.4603833  46.9106493  15.6150113  43.7673833  46.2216493
  18.7360113  46.7343833  45.5146493  19.5800113  46.8383833  45.3196493
  18.4390113  47.5523833  45.5826493  18.8170113  46.8703833  45.4956493
  21.9490113  31.2053833  54.8286493  22.1270113  30.3963833  54.5536493
  21.8060113  31.6463833  54.0896493  21.9540113  31.1513833  54.6786493
  22.5430113  36.1313833  43.6016493  22.8300113  35.8993833  42.8116493
  23.2750113  36.2103833  44.0706493  22.6930113  36.1083833  43.5546493
  23.2650113  36.4703833  38.7226493  23.5460113  37.2583833  38.9716493
  22.4890113  36.6353833  38.3596493  23.1920113  36.6113833  38.7056493
  27.3060113  48.4443833  40.1896493  27.9710113  48.2963833  39.6446493
  27.6660113  48.3613833  40.9796493  27.4580113  48.4103833  40.2256493
  17.7340113  47.9533833  51.2546493  18.0260113  47.8863833  52.0746493
  17.1080113  47.3483833  51.2096493  17.6850113  47.8543833  51.3696493
  12.6480113  34.1103833  53.2466493  12.6440113  34.6973833  53.8926493
  13.2420113  34.4223833  52.6896493  12.7350113  34.2433833  53.2596493
  22.1240113  44.6413833  38.5386493  21.9430113  45.1863833  39.1956493
  22.8900113  44.9313833  38.2376493  22.2100113  44.7653833  38.5916493
  25.6310113  32.5373833  39.5926493  26.1710113  31.8553833  39.6686493
  25.6930113  32.9353833  40.3666493  25.7200113  32.4953833  39.7186493
  13.5850113  33.7053833  42.1616493  13.4710113  32.8413833  42.1926493
  13.1100113  33.9993833  42.8316493  13.4980113  33.6213833  42.2646493
  15.7270113  46.1153833  50.3766493  15.0290113  45.6073833  50.5026493
  15.9870113  45.9103833  49.5686493  15.6620113  46.0103833  50.2756493
  22.8890113  34.9133833  40.9066493  22.3810113  34.2513833  40.6526493
  22.9410113  35.4173833  40.1966493  22.8220113  34.8903833  40.7646493
  23.4380113  47.6083833  51.2866493  24.2060113  47.5283833  50.8806493
  22.8550113  47.4873833  50.6486493  23.4650113  47.5783833  51.1326493
  22.8890113  31.8543833  40.7976493  22.4340113  31.4523833  40.1716493
  23.6620113  32.0093833  40.4226493  22.9360113  31.8183833  40.6496493
  29.7150113  48.2113833  44.1876493  29.2600113  48.9283833  44.3886493
  29.1010113  47.6403833  43.9456493  29.5570113  48.2333833  44.1816493
  21.4870113  34.2213833  45.3196493  21.5610113  34.7893833  44.6616493
  21.6080113  34.7133833  46.0296493  21.5150113  34.3783833  45.3276493
  26.7120113  44.0563833  43.7316493  27.4130113  43.5743833  43.9206493
  26.0520113  43.4873833  43.7766493  26.7180113  43.9013833  43.7656493
  17.0880113  44.9663833  52.9436493  17.9290113  45.0293833  52.7216493
  17.0510113  45.3633833  53.7196493  17.2070113  45.0343833  53.0256493
  16.0950113  30.0443833  43.6676493  16.6310113  30.7323833  43.6576493
  16.0980113  29.7703833  42.8396493  16.1740113  30.1053833  43.5436493
  19.0510113  40.4773833  47.6926493  19.2230113  40.2673833  48.5216493
  18.3960113  39.9433833  47.4766493  18.9800113  40.3673833  47.7836493
  19.8010113  40.4153833  50.2826493  19.8540113  41.2623833  50.4846493
  19.5160113  40.0453833  51.0196493  19.7670113  40.4853833  50.4206493
  26.5350113  30.3353833  44.0436493  26.5840113  30.0173833  44.8546493
  26.8580113  29.6913833  43.5506493  26.5900113  30.1933833  44.0906493
  12.6220113  44.7863833  56.4936493  13.3780113  45.1353833  56.7516493
  12.7990113  43.9333833  56.4366493  12.7600113  44.7113833  56.5236493
  16.5430113  33.8543833  45.3216493  16.8150113  33.4243833  44.6136493
  16.3670113  33.2183833  45.8926493  16.5570113  33.6973833  45.3016493
  16.3670113  41.2813833  44.8706493  17.2180113  41.2013833  44.6976493
  16.0100113  40.5993833  44.4586493  16.4400113  41.1683833  44.7836493
  15.1340113  48.0063833  46.1076493  14.4610113  47.5083833  45.8626493
  15.5370113  48.1913833  45.3566493  15.0940113  47.9603833  45.9606493
  14.6840113  34.9563833  48.4036493  15.5270113  35.1763833  48.3606493
  14.2950113  35.5293833  47.8726493  14.7510113  35.0733833  48.3186493
  27.1260113  38.0863833  39.1246493  26.9060113  38.8173833  38.7026493
  26.6780113  38.1373833  39.8716493  27.0270113  38.2013833  39.1726493
  18.7350113  41.2883833  43.1056493  19.4480113  41.7833833  43.1956493
  18.9570113  40.7213833  42.4796493  18.8730113  41.2773833  43.0266493
  12.8910113  42.9313833  46.4256493  12.2240113  43.4193833  46.7016493
  13.5710113  43.4763833  46.4546493  12.8930113  43.0833833  46.4706493
  20.5380113  36.6413833  56.5216493  20.0540113  37.2183833  56.9636493
  20.5100113  36.9363833  55.7006493  20.4620113  36.7703833  56.4656493
  12.9570113  39.6153833  41.5286493  12.7720113  38.7763833  41.6806493
  13.6160113  39.5793833  40.9586493  13.0270113  39.4863833  41.4666493
  23.2580113  44.9913833  45.4326493  22.7350113  45.6253833  45.1396493
  23.5680113  44.6273833  44.7036493  23.2260113  45.0313833  45.2816493
  13.1290113  43.7793833  41.1036493  13.6810113  44.3483833  41.4676493
  12.8970113  43.2643833  41.7686493  13.1760113  43.7873833  41.2556493
  17.3330113  42.7793833  48.1926493  17.8000113  43.0683833  48.8706493
  17.9050113  42.3013833  47.7386493  17.4870113  42.7513833  48.2256493
  25.7690113  34.7933833  45.9296493  26.1130113  34.9453833  46.7166493
  25.3160113  34.0553833  46.0426493  25.7530113  34.7063833  46.0626493
  12.9590113  42.2283833  38.7316493  13.7150113  41.7963833  38.7896493
  12.9740113  42.7603833  39.4226493  13.0730113  42.2433833  38.8426493
  13.8990113  40.4493833  46.7366493  14.3300113  40.3203833  45.9896493
  13.6940113  41.2973833  46.7106493  13.9320113  40.5553833  46.6226493
  20.2450113  34.0133833  40.3866493  20.2430113  33.8963833  39.5216493
  20.0640113  34.8613833  40.4786493  20.2180113  34.1213833  40.2726493
  29.2990113  46.4403833  51.8836493  28.6280113  46.9543833  52.1016493
  29.3620113  46.5403833  51.0196493  29.2090113  46.5313833  51.7886493
  17.9830113  43.9653833  45.0186493  18.1090113  44.8083833  45.2056493
  18.6510113  43.5663833  45.4146493  18.1010113  44.0313833  45.1046493
  16.1130113  37.4483833  54.8806493  15.5770113  36.9423833  55.3486493
  16.1330113  37.0583833  54.1006493  16.0360113  37.3153833  54.8346493
  16.5980113  36.8453833  40.0206493  16.4700113  36.3973833  40.7586493
  16.0160113  36.5033833  39.4686493  16.4930113  36.7283833  40.0486493
  17.1950113  38.4123833  50.0876493  17.2200113  37.7373833  49.5366493
  16.5490113  38.9083833  49.7756493  17.1040113  38.3853833  49.9606493
  21.2950113  47.1893833  49.4796493  21.0180113  46.5483833  48.9566493
  21.0870113  47.9153833  49.0416493  21.2240113  47.2023833  49.3376493
  23.7350113  32.0313833  51.9126493  23.8840113  31.2063833  51.6696493
  24.1140113  32.0863833  52.6966493  23.8130113  31.9173833  51.9926493
  25.2830113  34.0943833  41.9946493  25.7730113  34.8113833  41.9176493
  24.4930113  34.3553833  41.7316493  25.2390113  34.2383833  41.9446493
  14.9940113  39.7673833  55.6466493  14.9570113  40.2683833  54.9326493
  15.3250113  39.0153833  55.3516493  15.0370113  39.7293833  55.4976493
  20.8930113  44.8173833  55.0816493  21.2470113  44.6393833  55.8586493
  20.4570113  44.0883833  54.8826493  20.8810113  44.6833833  55.1676493
  21.8650113  35.5643833  47.7196493  22.3450113  36.2633833  47.9276493
  22.2380113  34.9173833  48.1706493  21.9910113  35.5723833  47.8166493
  24.0540113  38.7333833  39.9936493  24.0460113  39.4553833  39.5036493
  23.4150113  38.8683833  40.5706493  23.9590113  38.8603833  40.0066493
  29.0260113  42.6033833  43.9746493  29.3820113  42.2533833  44.6896493
  29.0180113  41.9423833  43.4046493  29.0780113  42.4533833  43.9956493
  18.9760113  47.3323833  41.6666493  18.8290113  46.5563833  42.0376493
  19.6650113  47.1853833  41.1516493  19.0560113  47.1953833  41.6456493
  18.6470113  31.0753833  39.6546493  18.7440113  30.9683833  40.5156493
  17.9390113  31.5813833  39.5896493  18.5570113  31.1343833  39.7726493
  21.2680113  46.8483833  40.0686493  21.8900113  47.0113833  40.6586493
  21.3040113  47.5393833  39.5366493  21.3650113  46.9743833  40.0776493
  24.5350113  45.8673833  56.3416493  24.6990113  46.1503833  57.1506493
  24.7980113  46.5283833  55.8366493  24.5980113  46.0073833  56.3866493
  29.3760113  30.8163833  55.0516493  28.7390113  30.4163833  54.6096493
  29.4020113  30.3853833  55.8096493  29.2860113  30.6943833  55.0976493
  15.7690113  39.3823833  40.8976493  16.0930113  38.6033833  40.6756493
  16.4150113  39.7503833  41.3526493  15.9120113  39.3213833  40.9316493
  12.7660113  31.0433833  41.8656493  12.8950113  30.3353833  41.3736493
  12.3990113  30.7253833  42.5906493  12.7310113  30.8913833  41.9006493
  22.4590113  38.7243833  42.3226493  22.5180113  39.3743833  42.9016493
  22.2700113  38.0283833  42.8136493  22.4400113  38.7173833  42.4806493
  16.9550113  33.2413833  38.8346493  16.4440113  33.2943833  38.1286493
  17.7390113  33.4813833  38.5386493  16.9950113  33.2843833  38.6866493
  21.6820113  40.7713833  46.7536493  20.8350113  40.5773833  46.8346493
  22.0060113  40.6063833  47.5466493  21.6040113  40.7183833  46.8826493
  18.4340113  47.5013833  37.6396493  18.8730113  46.8043833  37.9276493
  18.6410113  48.1253833  38.2126493  18.5300113  47.4903833  37.7666493
  15.5300113  40.4643833  49.0696493  16.2520113  40.9523833  49.0326493
  15.2600113  40.4343833  48.2406493  15.5970113  40.5323833  48.9416493
  18.7600113  35.6353833  45.8046493  19.6060113  35.4453833  45.9026493
  18.3900113  34.8583833  45.6666493  18.8300113  35.4923833  45.7986493
  31.3770113  47.2193833  40.1316493  32.0710113  46.7523833  39.8836493
  30.8380113  46.6213833  40.4686493  31.4000113  47.0613833  40.1446493
  13.5810113  36.9733833  42.4596493  14.0700113  36.6813833  43.1206493
  13.7100113  36.3803833  41.8326493  13.6720113  36.8423833  42.4646493
  18.1060113  38.4073833  37.9456493  17.4960113  38.0023833  38.4196493
  17.7200113  38.5253833  37.1726493  17.9590113  38.3643833  37.9016493
  14.9250113  41.5163833  53.3476493  14.5040113  40.9983833  52.7866493
  14.5730113  42.3023833  53.2046493  14.8110113  41.5563833  53.2436493
  19.5610113  36.8683833  40.6556493  19.8330113  37.6943833  40.7226493
  18.6980113  36.9433833  40.5596493  19.4740113  37.0013833  40.6506493
  13.0410113  32.8383833  47.1916493  13.0850113  33.1823833  46.3906493
  13.7960113  33.0753833  47.5586493  13.1590113  32.9243833  47.1276493
  31.0030113  45.6993833  47.2766493  31.2930113  45.9563833  46.4956493
  31.6980113  45.7953833  47.7956493  31.1490113  45.7513833  47.2376493
  27.6080113  44.3023833  39.2586493  27.9420113  43.4963833  39.2936493
  26.8530113  44.2303833  39.6886493  27.5460113  44.1723833  39.3276493
  28.0900113  36.1363833  44.9176493  27.3450113  35.8133833  45.2356493
  28.0920113  36.9623833  45.1976493  27.9800113  36.2103833  45.0056493
  24.9820113  42.1773833  38.6616493  25.6660113  41.6633833  38.4926493
  24.5650113  42.2233833  37.8966493  25.0210113  42.1083833  38.5236493
  19.6640113  43.3273833  49.9656493  19.3660113  43.9193833  50.5326493
  19.7190113  43.7693833  49.2166493  19.6280113  43.4803833  49.9386493
  17.6430113  42.2773833  53.3636493  16.8370113  41.9873833  53.5306493
  17.5540113  43.1453833  53.3696493  17.5110113  42.3623833  53.3886493
  22.1800113  39.7503833  49.4566493  22.6560113  40.1243833  50.0846493
  21.3570113  39.8843833  49.7156493  22.1290113  39.8253833  49.5876493
  18.8900113  35.3533833  52.1976493  19.0510113  34.6093833  52.6246493
  18.8450113  35.1043833  51.3626493  18.9070113  35.2063833  52.1376493
  21.4440113  47.1433833  44.6846493  21.9900113  47.8223833  44.7386493
  21.0940113  47.2253833  43.8896493  21.4730113  47.2563833  44.5746493
  28.2870113  30.4463833  50.0486493  28.0070113  31.2713833  50.0046493
  29.0030113  30.4993833  50.5446493  28.3520113  30.5763833  50.1156493
  20.6420113  31.1613833  52.0776493  21.3470113  31.4813833  51.6756493
  20.8830113  30.3543833  52.3046493  20.7810113  31.0893833  52.0516493
  19.6270113  45.3713833  48.0736493  19.0030113  45.9533833  47.8916493
  19.8750113  45.0853833  47.2876493  19.5710113  45.4153833  47.9306493
  21.2210113  40.1473833  37.9886493  20.4160113  39.9703833  37.7036493
  21.1880113  40.9983833  38.1806493  21.0970113  40.2463833  37.9756493
  17.1510113  36.2143833  48.1386493  17.5910113  36.1113833  47.3926493
  17.6960113  35.9013833  48.7436493  17.2960113  36.1533833  48.1176493
  22.2800113  47.0203833  53.9536493  22.7580113  46.4203833  53.5376493
  21.9290113  46.5773833  54.6186493  22.2990113  46.8663833  53.9906493
  27.4030113  36.3003833  42.2806493  27.6100113  36.0993833  43.1046493
  28.1590113  36.5683833  41.9386493  27.5450113  36.3103833  42.3516493
  20.6980113  31.1993833  48.1856493  19.8720113  31.0503833  48.4226493
  20.6580113  31.2343833  47.3146493  20.5700113  31.1823833  48.0916493
  28.8680113  40.3273833  42.1346493  29.3440113  39.5983833  42.0866493
  28.0470113  40.0413833  42.0586493  28.8170113  40.1773833  42.1156493
  13.2630113  31.5973833  54.2206493  13.1230113  32.3923833  53.8896493
  12.4770113  31.3543833  54.5096493  13.1260113  31.6793833  54.2146493
  18.1690113  48.4463833  48.2906493  18.1800113  48.5053833  49.1606493
  17.7440113  47.6993833  48.1406493  18.1080113  48.3443833  48.3966493
  16.3270113  34.3413833  41.4456493  16.4530113  34.0123833  40.6476493
  15.5150113  34.0923833  41.6446493  16.2260113  34.2563833  41.3576493
  25.0840113  41.4943833  44.4896493  25.1600113  41.8353833  45.2886493
  25.2530113  40.6473833  44.6106493  25.1200113  41.4193833  44.6256493
  22.6060113  40.7683833  44.0546493  22.3080113  40.4533833  44.8116493
  23.3010113  41.2413833  44.2896493  22.6650113  40.7913833  44.2016493
  14.9330113  47.9443833  53.7326493  14.2790113  47.3753833  53.8306493
  14.5580113  48.7173833  53.8836493  14.7810113  47.9743833  53.7696493
  26.5350113  47.7243833  46.5846493  26.0840113  48.3673833  46.9636493
  27.2430113  47.6453833  47.0896493  26.5730113  47.8073833  46.7156493
  16.3040113  36.3523833  51.8616493  16.6790113  36.9713833  51.3746493
  16.9780113  35.8783833  52.1466493  16.4590113  36.3743833  51.8316493
  14.0790113  34.8003833  51.1366493  14.1560113  34.6313833  50.2836493
  14.8250113  35.2063833  51.3336493  14.2000113  34.8353833  51.0396493
  16.6330113  32.2103833  53.5476493  16.5520113  31.3663833  53.7536493
  16.3190113  32.2543833  52.7346493  16.5750113  32.0923833  53.4576493
  23.5580113  44.4053833  42.6836493  23.3530113  45.2383833  42.5246493
  22.7830113  44.0233833  42.8056493  23.4130113  44.4723833  42.6786493
  13.4760113  40.0263833  51.3606493  13.7960113  40.2453833  50.5796493
  13.3760113  39.1613833  51.3056493  13.5080113  39.9313833  51.2376493
  14.9320113  35.9623833  37.9786493  14.2600113  35.9763833  38.5346493
  15.0270113  35.1143833  37.7946493  14.8470113  35.8393833  38.0336493
  24.6190113  32.3863833  54.7146493  24.7110113  33.0983833  55.2086493
  23.9820113  31.9413833  55.1116493  24.5380113  32.4253833  54.8466493
  23.6130113  32.5763833  45.5686493  22.9130113  33.0943833  45.5126493
  23.6510113  32.1963833  44.7846493  23.5150113  32.5973833  45.4446493
  18.9200113  44.6673833  39.0926493  19.3610113  44.7473833  39.8406493
  18.1150113  44.4513833  39.3506493  18.8660113  44.6473833  39.2416493
  18.2390113  39.3183833  52.7456493  17.8430113  40.0923833  52.8206493
  17.8330113  38.9453833  52.0696493  18.1210113  39.3773833  52.6566493
  27.8280113  46.4383833  42.6666493  27.6540113  45.7843833  43.2166493
  28.5410113  46.1673833  42.2436493  27.9080113  46.3013833  42.6856493
  16.2490113  43.7373833  39.6936493  16.0050113  43.4303833  40.4736493
  16.2160113  43.0343833  39.1776493  16.2080113  43.5883833  39.7326493
  19.0680113  41.9823833  38.4366493  18.2500113  41.7143833  38.5766493
  19.0400113  42.8343833  38.6216493  18.9430113  42.0693833  38.4846493
  18.6680113  32.2953833  50.1956493  17.8040113  32.3793833  50.2756493
  18.8880113  31.7813833  50.8646493  18.5730113  32.2323833  50.3066493
  22.7710113  33.0433833  48.5696493  22.0340113  32.5893833  48.6826493
  23.3420113  32.6413833  49.0926493  22.7460113  32.9163833  48.6636493
  25.0370113  48.1053833  54.6036493  24.2840113  48.0873833  54.1626493
  25.2050113  48.9573833  54.6876493  24.9510113  48.2283833  54.5506493
  20.2740113  37.3723833  53.7736493  19.9520113  36.7963833  53.2036493
  19.9150113  38.1273833  53.5276493  20.1740113  37.3983833  53.6536493
  21.0700113  30.6243833  38.4006493  21.1480113  30.8713833  37.5676493
  20.3270113  31.0013833  38.6586493  20.9720113  30.7163833  38.3156493
  18.7090113  47.7283833  54.0216493  18.7500113  47.8543833  54.8846493
  19.3600113  47.1683833  53.8656493  18.8110113  47.6643833  54.1266493
  24.9340113  31.2343833  47.8206493  25.6040113  31.7783833  47.9476493
  24.4310113  31.6583833  47.2476493  24.9590113  31.3773833  47.7546493
  16.3020113  46.1113833  55.3816493  16.8970113  46.5423833  55.8536493
  15.9380113  46.7353833  54.8926493  16.3360113  46.2673833  55.3786493
  24.2930113  37.0423833  45.3136493  24.8440113  36.4353833  45.6136493
  23.8680113  37.3053833  46.0286493  24.3120113  36.9913833  45.4626493
  14.5410113  35.6923833  44.7996493  14.1730113  35.9943833  45.5306493
  15.0750113  35.0633833  45.0836493  14.5650113  35.6443833  44.9496493
  14.2290113  44.1003833  52.3106493  13.6550113  44.5163833  52.8196493
  14.9620113  44.5653833  52.4056493  14.2530113  44.2303833  52.3996493
  26.2630113  38.8733833  41.8756493  26.3310113  38.0233833  42.0566493
  25.4400113  38.9593833  41.5976493  26.1510113  38.7603833  41.8616493
  16.0150113  47.3673833  41.0856493  15.8700113  47.5233833  40.2396493
  16.8810113  47.4463833  41.1636493  16.1220113  47.4023833  40.9726493
  20.1820113  39.7643833  40.8136493  20.2820113  39.9033833  39.9586493
  21.0000113  39.7043833  41.1096493  20.3170113  39.7753833  40.7306493
  29.3420113  47.8283833  38.2936493  29.9790113  47.6943833  38.8746493
  29.0010113  47.0343833  38.1766493  29.3860113  47.6913833  38.3616493
  25.4170113  44.0933833  40.6156493  25.1660113  43.9653833  41.4416493
  25.1000113  43.3983833  40.1946493  25.3330113  43.9723833  40.6756493
  19.3210113  32.7393833  53.9296493  19.5550113  32.1633833  53.3166493
  18.4790113  32.5583833  54.0706493  19.2310113  32.6273833  53.8596493
  16.7020113  46.1823833  47.5626493  16.6230113  45.3723833  47.2466493
  16.2580113  46.6693833  46.9906493  16.6250113  46.1343833  47.4316493
  22.3030113  42.3013833  40.0456493  23.0200113  41.9543833  39.6896493
  22.2690113  43.1013833  39.6976493  22.4040113  42.3683833  39.9416493
  14.2740113  48.4263833  51.1436493  14.7670113  48.3703833  51.8616493
  14.4620113  47.6933833  50.7086493  14.3750113  48.3093833  51.1856493
  23.7120113  30.9423833  24.2844083  23.4670113  31.4303833  23.6044083
  24.5750113  30.8693833  24.1844083  23.8030113  31.0033833  24.1694083
  23.5210113  37.8583833  28.9554083  22.9970113  38.4543833  29.3184083
  23.9180113  37.4903833  29.6394083  23.5020113  37.8923833  29.1104083
  13.3900113  41.9983833  24.4114083  12.9490113  42.1163833  25.1544083
  13.1070113  41.2233833  24.1264083  13.2830113  41.9013833  24.4794083
  29.6650113  45.2993833  21.9264083  30.3660113  44.7803833  21.9224083
  29.0780113  44.8543833  21.4574083  29.6820113  45.1563833  21.8564083
  13.1330113  35.7903833  20.9184083  12.3550113  35.9523833  20.5584083
  13.1720113  34.9193833  20.9404083  13.0240113  35.6853833  20.8684083
  16.2720113  41.0533833  19.5904083  15.8800113  40.6823833  18.9044083
  16.1920113  40.4553833  20.2194083  16.2020113  40.9103833  19.5814083
  26.1920113  38.9253833  25.6314083  26.2720113  38.9293833  24.7624083
  25.6080113  38.2933833  25.7804083  26.1170113  38.8323833  25.5254083
  15.8990113  42.6943833  23.4904083  16.5070113  42.5243833  24.0934083
  15.1480113  42.5543833  23.9114083  15.8780113  42.6483833  23.6414083
  20.1810113  32.0293833  23.4394083  20.1110113  32.7063833  22.8934083
  20.9220113  31.6413833  23.1904083  20.2800113  32.0723833  23.3214083
  14.7900113  45.7853833  19.5674083  15.2570113  45.8693833  18.8354083
  15.2450113  45.2073833  20.0364083  14.9260113  45.7123833  19.5284083
  13.3300113  44.7333833  30.6664083  13.4590113  44.4533833  31.4824083
  12.7200113  44.1923833  30.3574083  13.2590113  44.6123833  30.7414083
  19.9040113  42.2583833  35.7334083  19.6680113  42.2553833  36.5734083
  19.1560113  42.1103833  35.3094083  19.7580113  42.2353833  35.7944083
  14.7760113  39.2543833  24.8684083  14.3140113  38.8623833  24.2414083
  15.4760113  38.7413833  24.9604083  14.8110113  39.1213833  24.7894083
  19.2840113  34.8643833  30.2154083  19.9620113  34.8823833  29.6664083
  19.2390113  34.0283833  30.4604083  19.3770113  34.7433833  30.1704083
  19.8860113  45.4503833  32.9964083  20.0240113  46.2103833  32.5894083
  20.6770113  45.0853833  33.0234083  20.0230113  45.5093833  32.9404083
  16.7770113  37.3543833  24.8914083  17.5940113  37.1673833  25.1344083
  16.3000113  36.7403833  25.2874083  16.8270113  37.2363833  24.9864083
  20.9810113  43.3353833  27.5014083  21.3290113  42.5363833  27.5314083
  21.6460113  43.8393833  27.2464083  21.1310113  43.2913833  27.4684083
  21.0380113  42.7843833  23.7124083  21.3690113  42.1403833  24.1984083
  21.2780113  42.5733833  22.9014083  21.1220113  42.6583833  23.6644083
  23.0060113  36.9153833  35.0514083  22.1580113  36.8163833  34.8734083
  23.0350113  37.6603833  35.5054083  22.8850113  37.0113833  35.0924083
  17.3740113  32.4483833  24.1574083  17.0780113  32.9493833  23.5074083
  18.2410113  32.5263833  24.1004083  17.4580113  32.5343833  24.0534083
  27.5640113  29.8753833  34.1654083  27.4060113  30.6443833  33.7834083
  26.7920113  29.6553833  34.5094083  27.4260113  29.9563833  34.1604083
  20.3530113  31.5903833  26.3804083  20.4260113  32.4503833  26.5094083
  20.3150113  31.5153833  25.5124083  20.3580113  31.7063833  26.2714083
  25.0260113  34.5163833  18.6794083  24.5760113  35.1973833  18.9864083
  25.1400113  34.0123833  19.3824083  24.9770113  34.5423833  18.8284083
  13.2320113  37.0153833  27.8814083  12.9760113  37.8463833  27.8064083
  12.5680113  36.6323833  28.2984083  13.0960113  37.0813833  27.9324083
  13.1420113  46.7253833  25.7814083  12.5500113  47.2833833  25.4684083
  13.5680113  46.4563833  25.0694083  13.1180113  46.7673833  25.6304083
  18.9820113  44.5693833  23.2614083  18.4030113  44.2943833  23.8534083
  19.6060113  43.9603833  23.2864083  18.9890113  44.4393833  23.3524083
  25.1250113  46.8573833  20.7834083  25.8520113  47.3293833  20.8854083
  25.3540113  46.0633833  21.0634083  25.2670113  46.8103833  20.8404083
  23.2930113  47.2493833  22.7734083  23.5070113  47.7763833  23.4354083
  24.0600113  47.0753833  22.3944083  23.4380113  47.3013833  22.8154083
  16.2610113  31.8323833  28.3724083  15.7400113  31.2043833  28.0644083
  16.8520113  31.3953833  28.8434083  16.2720113  31.6743833  28.3964083
  19.5670113  33.9653833  37.6704083  19.6840113  33.5113833  36.9344083
  19.8550113  34.7633833  37.4674083  19.6270113  34.0163833  37.5314083
  14.6870113  45.3953833  23.7124083  15.3430113  44.8203833  23.7274083
  15.0760113  46.1443833  23.4914083  14.8420113  45.4203833  23.6824083
  30.4200113  34.4893833  24.9744083  30.0740113  35.1673833  25.4004083
  29.7840113  33.8913833  24.9904083  30.2750113  34.5013833  25.0394083
  15.3000113  33.5623833  36.6544083  14.5220113  33.1723833  36.5824083
  15.7910113  33.1503833  36.0634083  15.2570113  33.4433833  36.5564083
  15.5050113  43.8823833  27.2124083  15.9280113  43.5263833  26.5384083
  15.8290113  43.4603833  27.9044083  15.6150113  43.7673833  27.2154083
  18.7360113  46.7343833  26.5084083  19.5800113  46.8383833  26.3134083
  18.4390113  47.5523833  26.5764083  18.8170113  46.8703833  26.4894083
  21.9490113  31.2053833  35.8224083  22.1270113  30.3963833  35.5474083
  21.8060113  31.6463833  35.0834083  21.9540113  31.1513833  35.6724083
  22.5430113  36.1313833  24.5954083  22.8300113  35.8993833  23.8054083
  23.2750113  36.2103833  25.0644083  22.6930113  36.1083833  24.5484083
  23.2650113  36.4703833  19.7164083  23.5460113  37.2583833  19.9654083
  22.4890113  36.6353833  19.3534083  23.1920113  36.6113833  19.6994083
  27.3060113  48.4443833  21.1834083  27.9710113  48.2963833  20.6384083
  27.6660113  48.3613833  21.9734083  27.4580113  48.4103833  21.2194083
  17.7340113  47.9533833  32.2484083  18.0260113  47.8863833  33.0684083
  17.1080113  47.3483833  32.2034083  17.6850113  47.8543833  32.3634083
  30.0950113  32.8123833  30.3434083  30.8520113  32.8843833  29.9154083
  30.1580113  32.0393833  30.7424083  30.2160113  32.7093833  30.3384083
  12.6480113  34.1103833  34.2404083  12.6440113  34.6973833  34.8864083
  13.2420113  34.4223833  33.6834083  12.7350113  34.2433833  34.2534083
  24.9860113  44.4443833  34.7824083  24.9520113  44.8263833  35.5664083
  25.8400113  44.4023833  34.6114083  25.1070113  44.4943833  34.8734083
  22.1240113  44.6413833  19.5324083  21.9430113  45.1863833  20.1894083
  22.8900113  44.9313833  19.2314083  22.2100113  44.7653833  19.5854083
  25.6310113  32.5373833  20.5864083  26.1710113  31.8553833  20.6624083
  25.6930113  32.9353833  21.3604083  25.7200113  32.4953833  20.7124083
  13.5850113  33.7053833  23.1554083  13.4710113  32.8413833  23.1864083
  13.1100113  33.9993833  23.8254083  13.4980113  33.6213833  23.2584083
  15.7270113  46.1153833  31.3704083  15.0290113  45.6073833  31.4964083
  15.9870113  45.9103833  30.5624083  15.6620113  46.0103833  31.2694083
  22.8890113  34.9133833  21.9004083  22.3810113  34.2513833  21.6464083
  22.9410113  35.4173833  21.1904083  22.8220113  34.8903833  21.7584083
  23.4380113  47.6083833  32.2804083  24.2060113  47.5283833  31.8744083
  22.8550113  47.4873833  31.6424083  23.4650113  47.5783833  32.1264083
  22.8890113  31.8543833  21.7914083  22.4340113  31.4523833  21.1654083
  23.6620113  32.0093833  21.4164083  22.9360113  31.8183833  21.6434083
  29.7150113  48.2113833  25.1814083  29.2600113  48.9283833  25.3824083
  29.1010113  47.6403833  24.9394083  29.5570113  48.2333833  25.1754083
  21.4870113  34.2213833  26.3134083  21.5610113  34.7893833  25.6554083
  21.6080113  34.7133833  27.0234083  21.5150113  34.3783833  26.3214083
  26.7120113  44.0563833  24.7254083  27.4130113  43.5743833  24.9144083
  26.0520113  43.4873833  24.7704083  26.7180113  43.9013833  24.7594083
  17.0880113  44.9663833  33.9374083  17.9290113  45.0293833  33.7154083
  17.0510113  45.3633833  34.7134083  17.2070113  45.0343833  34.0194083
  16.0950113  30.0443833  24.6614083  16.6310113  30.7323833  24.6514083
  16.0980113  29.7703833  23.8334083  16.1740113  30.1053833  24.5374083
  19.0510113  40.4773833  28.6864083  19.2230113  40.2673833  29.5154083
  18.3960113  39.9433833  28.4704083  18.9800113  40.3673833  28.7774083
  25.2790113  34.3913833  32.2014083  25.1840113  34.7103833  33.0074083
  24.6860113  33.7523833  32.1634083  25.1770113  34.3433833  32.3154083
  19.8010113  40.4153833  31.2764083  19.8540113  41.2623833  31.4784083
  19.5160113  40.0453833  32.0134083  19.7670113  40.4853833  31.4144083
  26.5350113  30.3353833  25.0374083  26.5840113  30.0173833  25.8484083
  26.8580113  29.6913833  24.5444083  26.5900113  30.1933833  25.0844083
  12.6220113  44.7863833  37.4874083  13.3780113  45.1353833  37.7454083
  12.7990113  43.9333833  37.4304083  12.7600113  44.7113833  37.5174083
  28.9990113  34.5713833  33.3454083  29.7710113  34.3463833  33.6824083
  28.5240113  34.7883833  34.0454083  29.0430113  34.5703833  33.4984083
  16.5430113  33.8543833  26.3154083  16.8150113  33.4243833  25.6074083
  16.3670113  33.2183833  26.8864083  16.5570113  33.6973833  26.2954083
  29.2310113  41.5493833  20.5334083  29.3500113  41.2623833  21.3484083
  30.0380113  41.5703833  20.2034083  29.3670113  41.5103833  20.6054083
  16.3670113  41.2813833  25.8644083  17.2180113  41.2013833  25.6914083
  16.0100113  40.5993833  25.4524083  16.4400113  41.1683833  25.7774083
  14.6840113  34.9563833  29.3974083  15.5270113  35.1763833  29.3544083
  14.2950113  35.5293833  28.8664083  14.7510113  35.0733833  29.3124083
  27.1260113  38.0863833  20.1184083  26.9060113  38.8173833  19.6964083
  26.6780113  38.1373833  20.8654083  27.0270113  38.2013833  20.1664083
  18.7350113  41.2883833  24.0994083  19.4480113  41.7833833  24.1894083
  18.9570113  40.7213833  23.4734083  18.8730113  41.2773833  24.0204083
  31.3130113  32.9473833  19.5714083  30.6510113  32.3793833  19.5944083
  31.1200113  33.4593833  18.8914083  31.1870113  32.9393833  19.4744083
  12.8910113  42.9313833  27.4194083  12.2240113  43.4193833  27.6954083
  13.5710113  43.4763833  27.4484083  12.8930113  43.0833833  27.4644083
  20.5380113  36.6413833  37.5154083  20.0540113  37.2183833  37.9574083
  20.5100113  36.9363833  36.6944083  20.4620113  36.7703833  37.4594083
  12.9570113  39.6153833  22.5224083  12.7720113  38.7763833  22.6744083
  13.6160113  39.5793833  21.9524083  13.0270113  39.4863833  22.4604083
  29.3150113  32.5053833  21.8504083  30.0610113  32.0983833  22.0494083
  29.5780113  33.2203833  21.4254083  29.4640113  32.5513833  21.8174083
  23.2580113  44.9913833  26.4264083  22.7350113  45.6253833  26.1334083
  23.5680113  44.6273833  25.6974083  23.2260113  45.0313833  26.2754083
  13.1290113  43.7793833  22.0974083  13.6810113  44.3483833  22.4614083
  12.8970113  43.2643833  22.7624083  13.1760113  43.7873833  22.2494083
  17.3330113  42.7793833  29.1864083  17.8000113  43.0683833  29.8644083
  17.9050113  42.3013833  28.7324083  17.4870113  42.7513833  29.2194083
  25.7690113  34.7933833  26.9234083  26.1130113  34.9453833  27.7104083
  25.3160113  34.0553833  27.0364083  25.7530113  34.7063833  27.0564083
  12.9590113  42.2283833  19.7254083  13.7150113  41.7963833  19.7834083
  12.9740113  42.7603833  20.4164083  13.0730113  42.2433833  19.8364083
  13.8990113  40.4493833  27.7304083  14.3300113  40.3203833  26.9834083
  13.6940113  41.2973833  27.7044083  13.9320113  40.5553833  27.6164083
  20.2450113  34.0133833  21.3804083  20.2430113  33.8963833  20.5154083
  20.0640113  34.8613833  21.4724083  20.2180113  34.1213833  21.2664083
  17.9830113  43.9653833  26.0124083  18.1090113  44.8083833  26.1994083
  18.6510113  43.5663833  26.4084083  18.1010113  44.0313833  26.0984083
  16.1130113  37.4483833  35.8744083  15.5770113  36.9423833  36.3424083
  16.1330113  37.0583833  35.0944083  16.0360113  37.3153833  35.8284083
  16.5980113  36.8453833  21.0144083  16.4700113  36.3973833  21.7524083
  16.0160113  36.5033833  20.4624083  16.4930113  36.7283833  21.0424083
  16.7650113  38.6753833  27.6134083  15.9840113  38.6163833  27.2304083
  16.8370113  37.9233833  28.0504083  16.6600113  38.5563833  27.6214083
  17.1950113  38.4123833  31.0814083  17.2200113  37.7373833  30.5304083
  16.5490113  38.9083833  30.7694083  17.1040113  38.3853833  30.9544083
  27.0900113  36.1253833  29.4774083  26.4280113  36.4533833  29.9404083
  27.2770113  36.7593833  28.9084083  27.0200113  36.2673833  29.4614083
  21.2950113  47.1893833  30.4734083  21.0180113  46.5483833  29.9504083
  21.0870113  47.9153833  30.0354083  21.2240113  47.2023833  30.3314083
  23.7350113  32.0313833  32.9064083  23.8840113  31.2063833  32.6634083
  24.1140113  32.0863833  33.6904083  23.8130113  31.9173833  32.9864083
  25.2830113  34.0943833  22.9884083  25.7730113  34.8113833  22.9114083
  24.4930113  34.3553833  22.7254083  25.2390113  34.2383833  22.9384083
  14.9940113  39.7673833  36.6404083  14.9570113  40.2683833  35.9264083
  15.3250113  39.0153833  36.3454083  15.0370113  39.7293833  36.4914083
  26.5970113  41.9723833  34.8984083  27.0810113  42.6903833  34.9964083
  26.9910113  41.5453833  34.2474083  26.7270113  42.0153833  34.8164083
  20.8930113  44.8173833  36.0754083  21.2470113  44.6393833  36.8524083
  20.4570113  44.0883833  35.8764083  20.8810113  44.6833833  36.1614083
  21.8650113  35.5643833  28.7134083  22.3450113  36.2633833  28.9214083
  22.2380113  34.9173833  29.1644083  21.9910113  35.5723833  28.8104083
  24.0540113  38.7333833  20.9874083  24.0460113  39.4553833  20.4974083
  23.4150113  38.8683833  21.5644083  23.9590113  38.8603833  21.0004083
  29.0260113  42.6033833  24.9684083  29.3820113  42.2533833  25.6834083
  29.0180113  41.9423833  24.3984083  29.0780113  42.4533833  24.9894083
  18.9760113  47.3323833  22.6604083  18.8290113  46.5563833  23.0314083
  19.6650113  47.1853833  22.1454083  19.0560113  47.1953833  22.6394083
  18.6470113  31.0753833  20.6484083  18.7440113  30.9683833  21.5094083
  17.9390113  31.5813833  20.5834083  18.5570113  31.1343833  20.7664083
  21.2680113  46.8483833  21.0624083  21.8900113  47.0113833  21.6524083
  21.3040113  47.5393833  20.5304083  21.3650113  46.9743833  21.0714083
  28.3440113  40.5183833  33.0584083  28.3990113  40.6433833  32.1964083
  29.0970113  40.8383833  33.3604083  28.4630113  40.5833833  32.9754083
  24.5350113  45.8673833  37.3354083  24.6990113  46.1503833  38.1444083
  24.7980113  46.5283833  36.8304083  24.5980113  46.0073833  37.3804083
  15.7690113  39.3823833  21.8914083  16.0930113  38.6033833  21.6694083
  16.4150113  39.7503833  22.3464083  15.9120113  39.3213833  21.9254083
  24.0750113  40.3243833  32.6584083  23.9200113  40.9343833  33.2624083
  24.6090113  39.7663833  33.0644083  24.1310113  40.3323833  32.8074083
  12.7660113  31.0433833  22.8594083  12.8950113  30.3353833  22.3674083
  12.3990113  30.7253833  23.5844083  12.7310113  30.8913833  22.8944083
  22.4590113  38.7243833  23.3164083  22.5180113  39.3743833  23.8954083
  22.2700113  38.0283833  23.8074083  22.4400113  38.7173833  23.4744083
  16.9550113  33.2413833  19.8284083  16.4440113  33.2943833  19.1224083
  17.7390113  33.4813833  19.5324083  16.9950113  33.2843833  19.6804083
  21.6820113  40.7713833  27.7474083  20.8350113  40.5773833  27.8284083
  22.0060113  40.6063833  28.5404083  21.6040113  40.7183833  27.8764083
  18.4340113  47.5013833  18.6334083  18.8730113  46.8043833  18.9214083
  18.6410113  48.1253833  19.2064083  18.5300113  47.4903833  18.7604083
  15.5300113  40.4643833  30.0634083  16.2520113  40.9523833  30.0264083
  15.2600113  40.4343833  29.2344083  15.5970113  40.5323833  29.9354083
  18.7600113  35.6353833  26.7984083  19.6060113  35.4453833  26.8964083
  18.3900113  34.8583833  26.6604083  18.8300113  35.4923833  26.7924083
  31.3770113  47.2193833  21.1254083  32.0710113  46.7523833  20.8774083
  30.8380113  46.6213833  21.4624083  31.4000113  47.0613833  21.1384083
  13.5810113  36.9733833  23.4534083  14.0700113  36.6813833  24.1144083
  13.7100113  36.3803833  22.8264083  13.6720113  36.8423833  23.4584083
  28.6160113  39.9953833  30.3044083  28.6090113  39.2193833  30.7024083
  27.7750113  40.2293833  30.2974083  28.4910113  39.9153833  30.3624083
  18.1060113  38.4073833  18.9394083  17.4960113  38.0023833  19.4134083
  17.7200113  38.5253833  18.1664083  17.9590113  38.3643833  18.8954083
  14.9250113  41.5163833  34.3414083  14.5040113  40.9983833  33.7804083
  14.5730113  42.3023833  34.1984083  14.8110113  41.5563833  34.2374083
  29.8720113  40.0663833  27.7414083  29.5860113  40.4673833  28.4614083
  30.7320113  40.0043833  27.8684083  29.9570113  40.1163833  27.8664083
  19.5610113  36.8683833  21.6494083  19.8330113  37.6943833  21.7164083
  18.6980113  36.9433833  21.5534083  19.4740113  37.0013833  21.6444083
  27.5340113  33.9903833  36.2814083  27.0090113  34.4493833  36.8054083
  27.1730113  33.1953833  36.2754083  27.4030113  33.9403833  36.3574083
  13.0410113  32.8383833  28.1854083  13.0850113  33.1823833  27.3844083
  13.7960113  33.0753833  28.5524083  13.1590113  32.9243833  28.1214083
  26.0260113  37.5593833  36.3574083  26.0990113  37.6633833  37.2204083
  25.3920113  38.1173833  36.1364083  25.9430113  37.6573833  36.4524083
  28.2940113  37.8783833  34.7224083  28.6130113  38.6643833  34.9254083
  27.9240113  37.6083833  35.4654083  28.2870113  37.9543833  34.8624083
  27.6080113  44.3023833  20.2524083  27.9420113  43.4963833  20.2874083
  26.8530113  44.2303833  20.6824083  27.5460113  44.1723833  20.3214083
  28.0900113  36.1363833  25.9114083  27.3450113  35.8133833  26.2294083
  28.0920113  36.9623833  26.1914083  27.9800113  36.2103833  25.9994083
  24.9820113  42.1773833  19.6554083  25.6660113  41.6633833  19.4864083
  24.5650113  42.2233833  18.8904083  25.0210113  42.1083833  19.5174083
  19.6640113  43.3273833  30.9594083  19.3660113  43.9193833  31.5264083
  19.7190113  43.7693833  30.2104083  19.6280113  43.4803833  30.9324083
  17.6430113  42.2773833  34.3574083  16.8370113  41.9873833  34.5244083
  17.5540113  43.1453833  34.3634083  17.5110113  42.3623833  34.3824083
  27.0020113  32.4663833  33.3724083  27.7460113  32.9183833  33.3094083
  26.4360113  32.9363833  32.9034083  27.0290113  32.6033833  33.2944083
  22.1800113  39.7503833  30.4504083  22.6560113  40.1243833  31.0784083
  21.3570113  39.8843833  30.7094083  22.1290113  39.8253833  30.5814083
  18.8900113  35.3533833  33.1914083  19.0510113  34.6093833  33.6184083
  18.8450113  35.1043833  32.3564083  18.9070113  35.2063833  33.1314083
  21.4440113  47.1433833  25.6784083  21.9900113  47.8223833  25.7324083
  21.0940113  47.2253833  24.8834083  21.4730113  47.2563833  25.5684083
  28.2870113  30.4463833  31.0424083  28.0070113  31.2713833  30.9984083
  29.0030113  30.4993833  31.5384083  28.3520113  30.5763833  31.1094083
  20.6420113  31.1613833  33.0714083  21.3470113  31.4813833  32.6694083
  20.8830113  30.3543833  33.2984083  20.7810113  31.0893833  33.0454083
  19.6270113  45.3713833  29.0674083  19.0030113  45.9533833  28.8854083
  19.8750113  45.0853833  28.2814083  19.5710113  45.4153833  28.9244083
  23.9360113  42.0053833  36.0564083  24.6930113  42.2913833  35.7304083
  23.3890113  42.0573833  35.3784083  23.9670113  42.0553833  35.9074083
  29.7080113  36.7013833  19.8994083  30.0860113  37.3783833  19.4994083
  28.8660113  36.9253833  19.9304083  29.6390113  36.8343833  19.8444083
  21.2210113  40.1473833  18.9824083  20.4160113  39.9703833  18.6974083
  21.1880113  40.9983833  19.1744083  21.0970113  40.2463833  18.9694083
  17.1510113  36.2143833  29.1324083  17.5910113  36.1113833  28.3864083
  17.6960113  35.9013833  29.7374083  17.2960113  36.1533833  29.1114083
  25.1670113  35.3163833  34.7244083  24.5190113  35.7863833  35.0724083
  25.7320113  35.2273833  35.3834083  25.1550113  35.3723833  34.8734083
  24.8550113  36.8533833  31.0224083  25.1570113  37.2733833  31.7254083
  24.8910113  36.0133833  31.2544083  24.9050113  36.7913833  31.1604083
  22.2800113  47.0203833  34.9474083  22.7580113  46.4203833  34.5314083
  21.9290113  46.5773833  35.6124083  22.2990113  46.8663833  34.9844083
  27.4030113  36.3003833  23.2744083  27.6100113  36.0993833  24.0984083
  28.1590113  36.5683833  22.9324083  27.5450113  36.3103833  23.3454083
  20.6980113  31.1993833  29.1794083  19.8720113  31.0503833  29.4164083
  20.6580113  31.2343833  28.3084083  20.5700113  31.1823833  29.0854083
  28.4250113  32.3833833  24.7484083  27.7110113  31.9123833  24.9194083
  28.2630113  32.7243833  23.9624083  28.2960113  32.3643833  24.6574083
  28.8680113  40.3273833  23.1284083  29.3440113  39.5983833  23.0804083
  28.0470113  40.0413833  23.0524083  28.8170113  40.1773833  23.1094083
  22.3390113  42.2393833  33.9674083  21.5440113  42.1753833  34.3184083
  22.4100113  43.0863833  33.7724083  22.2320113  42.3543833  33.9904083
  13.2630113  31.5973833  35.2144083  13.1230113  32.3923833  34.8834083
  12.4770113  31.3543833  35.5034083  13.1260113  31.6793833  35.2084083
  18.1690113  48.4463833  29.2844083  18.1800113  48.5053833  30.1544083
  17.7440113  47.6993833  29.1344083  18.1080113  48.3443833  29.3904083
  16.3270113  34.3413833  22.4394083  16.4530113  34.0123833  21.6414083
  15.5150113  34.0923833  22.6384083  16.2260113  34.2563833  22.3514083
  25.0840113  41.4943833  25.4834083  25.1600113  41.8353833  26.2824083
  25.2530113  40.6473833  25.6044083  25.1200113  41.4193833  25.6194083
  22.6060113  40.7683833  25.0484083  22.3080113  40.4533833  25.8054083
  23.3010113  41.2413833  25.2834083  22.6650113  40.7913833  25.1954083
  22.8280113  44.8863833  33.0754083  23.5150113  44.7723833  33.6004083
  22.9620113  45.6773833  32.7314083  22.9490113  44.9863833  33.1024083
  25.5170113  38.1603833  33.4624083  25.2620113  37.4413833  33.8844083
  26.3380113  38.2763833  33.7324083  25.6010113  38.0713833  33.5644083
  14.9330113  47.9443833  34.7264083  14.2790113  47.3753833  34.8244083
  14.5580113  48.7173833  34.8774083  14.7810113  47.9743833  34.7634083
  23.4510113  39.3503833  36.6494083  23.7740113  40.0363833  36.2174083
  22.7470113  39.6733833  37.0514083  23.3940113  39.4993833  36.6444083
  28.6130113  45.4073833  37.0884083  29.3890113  45.0173833  37.1714083
  28.1440113  45.0713833  37.7434083  28.6580113  45.3003833  37.1974083
  16.3040113  36.3523833  32.8554083  16.6790113  36.9713833  32.3684083
  16.9780113  35.8783833  33.1404083  16.4590113  36.3743833  32.8254083
  14.0790113  34.8003833  32.1304083  14.1560113  34.6313833  31.2774083
  14.8250113  35.2063833  32.3274083  14.2000113  34.8353833  32.0334083
  16.6330113  32.2103833  34.5414083  16.5520113  31.3663833  34.7474083
  16.3190113  32.2543833  33.7284083  16.5750113  32.0923833  34.4514083
  23.5580113  44.4053833  23.6774083  23.3530113  45.2383833  23.5184083
  22.7830113  44.0233833  23.7994083  23.4130113  44.4723833  23.6724083
  28.7400113  37.5863833  31.9264083  28.7380113  36.7233833  32.0504083
  28.8070113  37.9103833  32.7334083  28.7500113  37.5063833  32.0634083
  13.4760113  40.0263833  32.3544083  13.7960113  40.2453833  31.5734083
  13.3760113  39.1613833  32.2994083  13.5080113  39.9313833  32.2314083
  14.9320113  35.9623833  18.9724083  14.2600113  35.9763833  19.5284083
  15.0270113  35.1143833  18.7884083  14.8470113  35.8393833  19.0274083
  24.6190113  32.3863833  35.7084083  24.7110113  33.0983833  36.2024083
  23.9820113  31.9413833  36.1054083  24.5380113  32.4253833  35.8404083
  23.6130113  32.5763833  26.5624083  22.9130113  33.0943833  26.5064083
  23.6510113  32.1963833  25.7784083  23.5150113  32.5973833  26.4384083
  18.9200113  44.6673833  20.0864083  19.3610113  44.7473833  20.8344083
  18.1150113  44.4513833  20.3444083  18.8660113  44.6473833  20.2354083
  27.2110113  33.0923833  29.3624083  28.0660113  33.1913833  29.5074083
  26.8420113  33.6453833  29.9274083  27.2830113  33.1893833  29.4674083
  18.2390113  39.3183833  33.7394083  17.8430113  40.0923833  33.8144083
  17.8330113  38.9453833  33.0634083  18.1210113  39.3773833  33.6504083
  27.5150113  38.3723833  27.8534083  28.1810113  38.9133833  28.0134083
  27.1700113  38.6833833  27.1144083  27.5620113  38.4983833  27.7684083
  27.8280113  46.4383833  23.6604083  27.6540113  45.7843833  24.2104083
  28.5410113  46.1673833  23.2374083  27.9080113  46.3013833  23.6794083
  16.2490113  43.7373833  20.6874083  16.0050113  43.4303833  21.4674083
  16.2160113  43.0343833  20.1714083  16.2080113  43.5883833  20.7264083
  19.0680113  41.9823833  19.4304083  18.2500113  41.7143833  19.5704083
  19.0400113  42.8343833  19.6154083  18.9430113  42.0693833  19.4784083
  18.6680113  32.2953833  31.1894083  17.8040113  32.3793833  31.2694083
  18.8880113  31.7813833  31.8584083  18.5730113  32.2323833  31.3004083
  30.6860113  30.9303833  32.5184083  30.6340113  30.8863833  33.3884083
  31.3730113  30.4273833  32.3284083  30.7800113  30.8503833  32.6184083
  22.7710113  33.0433833  29.5634083  22.0340113  32.5893833  29.6764083
  23.3420113  32.6413833  30.0864083  22.7460113  32.9163833  29.6574083
  25.0370113  48.1053833  35.5974083  24.2840113  48.0873833  35.1564083
  25.2050113  48.9573833  35.6814083  24.9510113  48.2283833  35.5444083
  20.2740113  37.3723833  34.7674083  19.9520113  36.7963833  34.1974083
  19.9150113  38.1273833  34.5214083  20.1740113  37.3983833  34.6474083
  21.0700113  30.6243833  19.3944083  21.1480113  30.8713833  18.5614083
  20.3270113  31.0013833  19.6524083  20.9720113  30.7163833  19.3094083
  18.7090113  47.7283833  35.0154083  18.7500113  47.8543833  35.8784083
  19.3600113  47.1683833  34.8594083  18.8110113  47.6643833  35.1204083
  15.8880113  32.3783833  31.8374083  15.5450113  31.6113833  31.6034083
  15.1930113  32.9023833  31.9014083  15.7350113  32.3423833  31.8124083
  24.9340113  31.2343833  28.8144083  25.6040113  31.7783833  28.9414083
  24.4310113  31.6583833  28.2414083  24.9590113  31.3773833  28.7484083
  16.3020113  46.1113833  36.3754083  16.8970113  46.5423833  36.8474083
  15.9380113  46.7353833  35.8864083  16.3360113  46.2673833  36.3724083
  24.2930113  37.0423833  26.3074083  24.8440113  36.4353833  26.6074083
  23.8680113  37.3053833  27.0224083  24.3120113  36.9913833  26.4564083
  14.5410113  35.6923833  25.7934083  14.1730113  35.9943833  26.5244083
  15.0750113  35.0633833  26.0774083  14.5650113  35.6443833  25.9434083
  14.2290113  44.1003833  33.3044083  13.6550113  44.5163833  33.8134083
  14.9620113  44.5653833  33.3994083  14.2530113  44.2303833  33.3934083
  26.2630113  38.8733833  22.8694083  26.3310113  38.0233833  23.0504083
  25.4400113  38.9593833  22.5914083  26.1510113  38.7603833  22.8554083
  16.0150113  47.3673833  22.0794083  15.8700113  47.5233833  21.2334083
  16.8810113  47.4463833  22.1574083  16.1220113  47.4023833  21.9664083
  20.1820113  39.7643833  21.8074083  20.2820113  39.9033833  20.9524083
  21.0000113  39.7043833  22.1034083  20.3170113  39.7753833  21.7244083
  29.3420113  47.8283833  19.2874083  29.9790113  47.6943833  19.8684083
  29.0010113  47.0343833  19.1704083  29.3860113  47.6913833  19.3554083
  25.4170113  44.0933833  21.6094083  25.1660113  43.9653833  22.4354083
  25.1000113  43.3983833  21.1884083  25.3330113  43.9723833  21.6694083
  30.0610113  35.7513833  29.7294083  29.2280113  36.0013833  29.6574083
  30.0050113  34.9113833  29.9584083  29.9300113  35.6643833  29.7524083
  19.3210113  32.7393833  34.9234083  19.5550113  32.1633833  34.3104083
  18.4790113  32.5583833  35.0644083  19.2310113  32.6273833  34.8534083
  26.9480113  40.3573833  37.3754083  27.8190113  40.3213833  37.3394083
  26.7290113  40.7773833  36.6434083  27.0450113  40.4133833  37.2624083
  16.7020113  46.1823833  28.5564083  16.6230113  45.3723833  28.2404083
  16.2580113  46.6693833  27.9844083  16.6250113  46.1343833  28.4254083
  22.3030113  42.3013833  21.0394083  23.0200113  41.9543833  20.6834083
  22.2690113  43.1013833  20.6914083  22.4040113  42.3683833  20.9354083
  14.2740113  48.4263833  32.1374083  14.7670113  48.3703833  32.8554083
  14.4620113  47.6933833  31.7024083  14.3750113  48.3093833  32.1794083
  23.7120113  30.9423833   5.2781673  23.4670113  31.4303833   4.5981673
  24.5750113  30.8693833   5.1781673  23.8030113  31.0033833   5.1631673
  23.5210113  37.8583833   9.9491673  22.9970113  38.4543833  10.3121673
  23.9180113  37.4903833  10.6331673  23.5020113  37.8923833  10.1041673
  13.3900113  41.9983833   5.4051673  12.9490113  42.1163833   6.1481673
  13.1070113  41.2233833   5.1201673  13.2830113  41.9013833   5.4731673
  29.6650113  45.2993833   2.9201673  30.3660113  44.7803833   2.9161673
  29.0780113  44.8543833   2.4511673  29.6820113  45.1563833   2.8501673
  26.1920113  38.9253833   6.6251673  26.2720113  38.9293833   5.7561673
  25.6080113  38.2933833   6.7741673  26.1170113  38.8323833   6.5191673
  15.8990113  42.6943833   4.4841673  16.5070113  42.5243833   5.0871673
  15.1480113  42.5543833   4.9051673  15.8780113  42.6483833   4.6351673
  20.1810113  32.0293833   4.4331673  20.1110113  32.7063833   3.8871673
  20.9220113  31.6413833   4.1841673  20.2800113  32.0723833   4.3151673
  13.3300113  44.7333833  11.6601673  13.4590113  44.4533833  12.4761673
  12.7200113  44.1923833  11.3511673  13.2590113  44.6123833  11.7351673
  19.9040113  42.2583833  16.7271673  19.6680113  42.2553833  17.5671673
  19.1560113  42.1103833  16.3031673  19.7580113  42.2353833  16.7881673
  14.7760113  39.2543833   5.8621673  14.3140113  38.8623833   5.2351673
  15.4760113  38.7413833   5.9541673  14.8110113  39.1213833   5.7831673
  19.2840113  34.8643833  11.2091673  19.9620113  34.8823833  10.6601673
  19.2390113  34.0283833  11.4541673  19.3770113  34.7433833  11.1641673
  19.8860113  45.4503833  13.9901673  20.0240113  46.2103833  13.5831673
  20.6770113  45.0853833  14.0171673  20.0230113  45.5093833  13.9341673
  16.7770113  37.3543833   5.8851673  17.5940113  37.1673833   6.1281673
  16.3000113  36.7403833   6.2811673  16.8270113  37.2363833   5.9801673
  20.9810113  43.3353833   8.4951673  21.3290113  42.5363833   8.5251673
  21.6460113  43.8393833   8.2401673  21.1310113  43.2913833   8.4621673
  21.0380113  42.7843833   4.7061673  21.3690113  42.1403833   5.1921673
  21.2780113  42.5733833   3.8951673  21.1220113  42.6583833   4.6581673
  23.0060113  36.9153833  16.0451673  22.1580113  36.8163833  15.8671673
  23.0350113  37.6603833  16.4991673  22.8850113  37.0113833  16.0861673
  17.3740113  32.4483833   5.1511673  17.0780113  32.9493833   4.5011673
  18.2410113  32.5263833   5.0941673  17.4580113  32.5343833   5.0471673
  27.5640113  29.8753833  15.1591673  27.4060113  30.6443833  14.7771673
  26.7920113  29.6553833  15.5031673  27.4260113  29.9563833  15.1541673
  20.3530113  31.5903833   7.3741673  20.4260113  32.4503833   7.5031673
  20.3150113  31.5153833   6.5061673  20.3580113  31.7063833   7.2651673
  13.2320113  37.0153833   8.8751673  12.9760113  37.8463833   8.8001673
  12.5680113  36.6323833   9.2921673  13.0960113  37.0813833   8.9261673
  13.1420113  46.7253833   6.7751673  12.5500113  47.2833833   6.4621673
  13.5680113  46.4563833   6.0631673  13.1180113  46.7673833   6.6241673
  18.9820113  44.5693833   4.2551673  18.4030113  44.2943833   4.8471673
  19.6060113  43.9603833   4.2801673  18.9890113  44.4393833   4.3461673
  25.1250113  46.8573833   1.7771673  25.8520113  47.3293833   1.8791673
  25.3540113  46.0633833   2.0571673  25.2670113  46.8103833   1.8341673
  23.2930113  47.2493833   3.7671673  23.5070113  47.7763833   4.4291673
  24.0600113  47.0753833   3.3881673  23.4380113  47.3013833   3.8091673
  16.2610113  31.8323833   9.3661673  15.7400113  31.2043833   9.0581673
  16.8520113  31.3953833   9.8371673  16.2720113  31.6743833   9.3901673
  19.5670113  33.9653833  18.6641673  19.6840113  33.5113833  17.9281673
  19.8550113  34.7633833  18.4611673  19.6270113  34.0163833  18.5251673
  14.6870113  45.3953833   4.7061673  15.3430113  44.8203833   4.7211673
  15.0760113  46.1443833   4.4851673  14.8420113  45.4203833   4.6761673
  30.4200113  34.4893833   5.9681673  30.0740113  35.1673833   6.3941673
  29.7840113  33.8913833   5.9841673  30.2750113  34.5013833   6.0331673
  25.7320113  47.2593833  12.0721673  26.4760113  47.7153833  12.0621673
  25.6110113  47.0453833  11.2351673  25.8240113  47.2953833  11.9471673
  15.3000113  33.5623833  17.6481673  14.5220113  33.1723833  17.5761673
  15.7910113  33.1503833  17.0571673  15.2570113  33.4433833  17.5501673
  15.5050113  43.8823833   8.2061673  15.9280113  43.5263833   7.5321673
  15.8290113  43.4603833   8.8981673  15.6150113  43.7673833   8.2091673
  18.7360113  46.7343833   7.5021673  19.5800113  46.8383833   7.3071673
  18.4390113  47.5523833   7.5701673  18.8170113  46.8703833   7.4831673
  21.9490113  31.2053833  16.8161673  22.1270113  30.3963833  16.5411673
  21.8060113  31.6463833  16.0771673  21.9540113  31.1513833  16.6661673
  22.5430113  36.1313833   5.5891673  22.8300113  35.8993833   4.7991673
  23.2750113  36.2103833   6.0581673  22.6930113  36.1083833   5.5421673
  27.3060113  48.4443833   2.1771673  27.9710113  48.2963833   1.6321673
  27.6660113  48.3613833   2.9671673  27.4580113  48.4103833   2.2131673
  17.7340113  47.9533833  13.2421673  18.0260113  47.8863833  14.0621673
  17.1080113  47.3483833  13.1971673  17.6850113  47.8543833  13.3571673
  30.0950113  32.8123833  11.3371673  30.8520113  32.8843833  10.9091673
  30.1580113  32.0393833  11.7361673  30.2160113  32.7093833  11.3321673
  12.6480113  34.1103833  15.2341673  12.6440113  34.6973833  15.8801673
  13.2420113  34.4223833  14.6771673  12.7350113  34.2433833  15.2471673
  24.9860113  44.4443833  15.7761673  24.9520113  44.8263833  16.5601673
  25.8400113  44.4023833  15.6051673  25.1070113  44.4943833  15.8671673
  13.5850113  33.7053833   4.1491673  13.4710113  32.8413833   4.1801673
  13.1100113  33.9993833   4.8191673  13.4980113  33.6213833   4.2521673
  15.7270113  46.1153833  12.3641673  15.0290113  45.6073833  12.4901673
  15.9870113  45.9103833  11.5561673  15.6620113  46.0103833  12.2631673
  22.8890113  34.9133833   2.8941673  22.3810113  34.2513833   2.6401673
  22.9410113  35.4173833   2.1841673  22.8220113  34.8903833   2.7521673
  23.4380113  47.6083833  13.2741673  24.2060113  47.5283833  12.8681673
  22.8550113  47.4873833  12.6361673  23.4650113  47.5783833  13.1201673
  22.8890113  31.8543833   2.7851673  22.4340113  31.4523833   2.1591673
  23.6620113  32.0093833   2.4101673  22.9360113  31.8183833   2.6371673
  29.7150113  48.2113833   6.1751673  29.2600113  48.9283833   6.3761673
  29.1010113  47.6403833   5.9331673  29.5570113  48.2333833   6.1691673
  21.4870113  34.2213833   7.3071673  21.5610113  34.7893833   6.6491673
  21.6080113  34.7133833   8.0171673  21.5150113  34.3783833   7.3151673
  26.7120113  44.0563833   5.7191673  27.4130113  43.5743833   5.9081673
  26.0520113  43.4873833   5.7641673  26.7180113  43.9013833   5.7531673
  17.0880113  44.9663833  14.9311673  17.9290113  45.0293833  14.7091673
  17.0510113  45.3633833  15.7071673  17.2070113  45.0343833  15.0131673
  16.0950113  30.0443833   5.6551673  16.6310113  30.7323833   5.6451673
  16.0980113  29.7703833   4.8271673  16.1740113  30.1053833   5.5311673
  19.0510113  40.4773833   9.6801673  19.2230113  40.2673833  10.5091673
  18.3960113  39.9433833   9.4641673  18.9800113  40.3673833   9.7711673
  25.2790113  34.3913833  13.1951673  25.1840113  34.7103833  14.0011673
  24.6860113  33.7523833  13.1571673  25.1770113  34.3433833  13.3091673
  19.8010113  40.4153833  12.2701673  19.8540113  41.2623833  12.4721673
  19.5160113  40.0453833  13.0071673  19.7670113  40.4853833  12.4081673
  25.9780113  41.1103833  11.4001673  25.4640113  40.6983833  11.9711673
  25.8520113  41.9543833  11.5811673  25.8840113  41.1743833  11.5111673
  26.5350113  30.3353833   6.0311673  26.5840113  30.0173833   6.8421673
  26.8580113  29.6913833   5.5381673  26.5900113  30.1933833   6.0781673
  12.6220113  44.7863833  18.4811673  13.3780113  45.1353833  18.7391673
  12.7990113  43.9333833  18.4241673  12.7600113  44.7113833  18.5111673
  16.5430113  33.8543833   7.3091673  16.8150113  33.4243833   6.6011673
  16.3670113  33.2183833   7.8801673  16.5570113  33.6973833   7.2891673
  16.3670113  41.2813833   6.8581673  17.2180113  41.2013833   6.6851673
  16.0100113  40.5993833   6.4461673  16.4400113  41.1683833   6.7711673
  15.1340113  48.0063833   8.0951673  14.4610113  47.5083833   7.8501673
  15.5370113  48.1913833   7.3441673  15.0940113  47.9603833   7.9481673
  14.6840113  34.9563833  10.3911673  15.5270113  35.1763833  10.3481673
  14.2950113  35.5293833   9.8601673  14.7510113  35.0733833  10.3061673
  31.4650113  46.0583833  15.7811673  30.7830113  46.3683833  15.3341673
  31.0960113  45.6003833  16.4261673  31.3090113  46.0363833  15.8101673
  18.7350113  41.2883833   5.0931673  19.4480113  41.7833833   5.1831673
  18.9570113  40.7213833   4.4671673  18.8730113  41.2773833   5.0141673
  12.8910113  42.9313833   8.4131673  12.2240113  43.4193833   8.6891673
  13.5710113  43.4763833   8.4421673  12.8930113  43.0833833   8.4581673
  20.5380113  36.6413833  18.5091673  20.0540113  37.2183833  18.9511673
  20.5100113  36.9363833  17.6881673  20.4620113  36.7703833  18.4531673
  31.6360113  37.3253833  13.1211673  31.8510113  36.5253833  12.8451673
  30.7860113  37.3853833  12.9321673  31.5420113  37.2163833  13.0521673
  12.9570113  39.6153833   3.5161673  12.7720113  38.7763833   3.6681673
  13.6160113  39.5793833   2.9461673  13.0270113  39.4863833   3.4541673
  29.3150113  32.5053833   2.8441673  30.0610113  32.0983833   3.0431673
  29.5780113  33.2203833   2.4191673  29.4640113  32.5513833   2.8111673
  23.2580113  44.9913833   7.4201673  22.7350113  45.6253833   7.1271673
  23.5680113  44.6273833   6.6911673  23.2260113  45.0313833   7.2691673
  13.1290113  43.7793833   3.0911673  13.6810113  44.3483833   3.4551673
  12.8970113  43.2643833   3.7561673  13.1760113  43.7873833   3.2431673
  17.3330113  42.7793833  10.1801673  17.8000113  43.0683833  10.8581673
  17.9050113  42.3013833   9.7261673  17.4870113  42.7513833  10.2131673
  25.7690113  34.7933833   7.9171673  26.1130113  34.9453833   8.7041673
  25.3160113  34.0553833   8.0301673  25.7530113  34.7063833   8.0501673
  13.8990113  40.4493833   8.7241673  14.3300113  40.3203833   7.9771673
  13.6940113  41.2973833   8.6981673  13.9320113  40.5553833   8.6101673
  29.2990113  46.4403833  13.8711673  28.6280113  46.9543833  14.0891673
  29.3620113  46.5403833  13.0071673  29.2090113  46.5313833  13.7761673
  17.9830113  43.9653833   7.0061673  18.1090113  44.8083833   7.1931673
  18.6510113  43.5663833   7.4021673  18.1010113  44.0313833   7.0921673
  16.1130113  37.4483833  16.8681673  15.5770113  36.9423833  17.3361673
  16.1330113  37.0583833  16.0881673  16.0360113  37.3153833  16.8221673
  16.7650113  38.6753833   8.6071673  15.9840113  38.6163833   8.2241673
  16.8370113  37.9233833   9.0441673  16.6600113  38.5563833   8.6151673
  17.1950113  38.4123833  12.0751673  17.2200113  37.7373833  11.5241673
  16.5490113  38.9083833  11.7631673  17.1040113  38.3853833  11.9481673
  27.0900113  36.1253833  10.4711673  26.4280113  36.4533833  10.9341673
  27.2770113  36.7593833   9.9021673  27.0200113  36.2673833  10.4551673
  21.2950113  47.1893833  11.4671673  21.0180113  46.5483833  10.9441673
  21.0870113  47.9153833  11.0291673  21.2240113  47.2023833  11.3251673
  23.7350113  32.0313833  13.9001673  23.8840113  31.2063833  13.6571673
  24.1140113  32.0863833  14.6841673  23.8130113  31.9173833  13.9801673
  25.2830113  34.0943833   3.9821673  25.7730113  34.8113833   3.9051673
  24.4930113  34.3553833   3.7191673  25.2390113  34.2383833   3.9321673
  14.9940113  39.7673833  17.6341673  14.9570113  40.2683833  16.9201673
  15.3250113  39.0153833  17.3391673  15.0370113  39.7293833  17.4851673
  20.8930113  44.8173833  17.0691673  21.2470113  44.6393833  17.8461673
  20.4570113  44.0883833  16.8701673  20.8810113  44.6833833  17.1551673
  21.8650113  35.5643833   9.7071673  22.3450113  36.2633833   9.9151673
  22.2380113  34.9173833  10.1581673  21.9910113  35.5723833   9.8041673
  29.0260113  42.6033833   5.9621673  29.3820113  42.2533833   6.6771673
  29.0180113  41.9423833   5.3921673  29.0780113  42.4533833   5.9831673
  25.0710113  45.6693833   9.8061673  24.4680113  45.3733833   9.2491673
  25.6160113  46.1213833   9.2971673  25.0620113  45.6923833   9.6481673
  25.0840113  42.5203833   9.2061673  24.2870113  42.7443833   9.4801673
  25.3420113  41.9263833   9.7911673  25.0040113  42.4653833   9.3331673
  18.9760113  47.3323833   3.6541673  18.8290113  46.5563833   4.0251673
  19.6650113  47.1853833   3.1391673  19.0560113  47.1953833   3.6331673
  28.3440113  40.5183833  14.0521673  28.3990113  40.6433833  13.1901673
  29.0970113  40.8383833  14.3541673  28.4630113  40.5833833  13.9691673
  24.5350113  45.8673833  18.3291673  24.6990113  46.1503833  19.1381673
  24.7980113  46.5283833  17.8241673  24.5980113  46.0073833  18.3741673
  29.3760113  30.8163833  17.0391673  28.7390113  30.4163833  16.5971673
  29.4020113  30.3853833  17.7971673  29.2860113  30.6943833  17.0851673
  15.7690113  39.3823833   2.8851673  16.0930113  38.6033833   2.6631673
  16.4150113  39.7503833   3.3401673  15.9120113  39.3213833   2.9191673
  24.0750113  40.3243833  13.6521673  23.9200113  40.9343833  14.2561673
  24.6090113  39.7663833  14.0581673  24.1310113  40.3323833  13.8011673
  12.7660113  31.0433833   3.8531673  12.8950113  30.3353833   3.3611673
  12.3990113  30.7253833   4.5781673  12.7310113  30.8913833   3.8881673
  22.4590113  38.7243833   4.3101673  22.5180113  39.3743833   4.8891673
  22.2700113  38.0283833   4.8011673  22.4400113  38.7173833   4.4681673
  27.6850113  43.0533833  10.1791673  27.2060113  43.3513833   9.5131673
  27.3290113  42.2773833  10.3571673  27.5620113  42.9823833  10.1071673
  21.6820113  40.7713833   8.7411673  20.8350113  40.5773833   8.8221673
  22.0060113  40.6063833   9.5341673  21.6040113  40.7183833   8.8701673
  15.5300113  40.4643833  11.0571673  16.2520113  40.9523833  11.0201673
  15.2600113  40.4343833  10.2281673  15.5970113  40.5323833  10.9291673
  18.7600113  35.6353833   7.7921673  19.6060113  35.4453833   7.8901673
  18.3900113  34.8583833   7.6541673  18.8300113  35.4923833   7.7861673
  31.3770113  47.2193833   2.1191673  32.0710113  46.7523833   1.8711673
  30.8380113  46.6213833   2.4561673  31.4000113  47.0613833   2.1321673
  13.5810113  36.9733833   4.4471673  14.0700113  36.6813833   5.1081673
  13.7100113  36.3803833   3.8201673  13.6720113  36.8423833   4.4521673
  28.6160113  39.9953833  11.2981673  28.6090113  39.2193833  11.6961673
  27.7750113  40.2293833  11.2911673  28.4910113  39.9153833  11.3561673
  14.9250113  41.5163833  15.3351673  14.5040113  40.9983833  14.7741673
  14.5730113  42.3023833  15.1921673  14.8110113  41.5563833  15.2311673
  29.8720113  40.0663833   8.7351673  29.5860113  40.4673833   9.4551673
  30.7320113  40.0043833   8.8621673  29.9570113  40.1163833   8.8601673
  19.5610113  36.8683833   2.6431673  19.8330113  37.6943833   2.7101673
  18.6980113  36.9433833   2.5471673  19.4740113  37.0013833   2.6381673
  27.5340113  33.9903833  17.2751673  27.0090113  34.4493833  17.7991673
  27.1730113  33.1953833  17.2691673  27.4030113  33.9403833  17.3511673
  13.0410113  32.8383833   9.1791673  13.0850113  33.1823833   8.3781673
  13.7960113  33.0753833   9.5461673  13.1590113  32.9243833   9.1151673
  31.0030113  45.6993833   9.2641673  31.2930113  45.9563833   8.4831673
  31.6980113  45.7953833   9.7831673  31.1490113  45.7513833   9.2251673
  26.0260113  37.5593833  17.3511673  26.0990113  37.6633833  18.2141673
  25.3920113  38.1173833  17.1301673  25.9430113  37.6573833  17.4461673
  28.2940113  37.8783833  15.7161673  28.6130113  38.6643833  15.9191673
  27.9240113  37.6083833  16.4591673  28.2870113  37.9543833  15.8561673
  28.0900113  36.1363833   6.9051673  27.3450113  35.8133833   7.2231673
  28.0920113  36.9623833   7.1851673  27.9800113  36.2103833   6.9931673
  30.9920113  38.4203833  18.4511673  30.9400113  38.0793833  17.6501673
  31.7290113  38.8873833  18.4291673  31.0930113  38.4393833  18.3291673
  30.5300113  42.0963833  14.6571673  31.1580113  41.5473833  14.4011673
  30.4690113  42.6613833  13.9951673  30.6140113  42.0993833  14.5211673
  19.6640113  43.3273833  11.9531673  19.3660113  43.9193833  12.5201673
  19.7190113  43.7693833  11.2041673  19.6280113  43.4803833  11.9261673
  17.6430113  42.2773833  15.3511673  16.8370113  41.9873833  15.5181673
  17.5540113  43.1453833  15.3571673  17.5110113  42.3623833  15.3761673
  27.0020113  32.4663833  14.3661673  27.7460113  32.9183833  14.3031673
  26.4360113  32.9363833  13.8971673  27.0290113  32.6033833  14.2881673
  22.1800113  39.7503833  11.4441673  22.6560113  40.1243833  12.0721673
  21.3570113  39.8843833  11.7031673  22.1290113  39.8253833  11.5751673
  18.8900113  35.3533833  14.1851673  19.0510113  34.6093833  14.6121673
  18.8450113  35.1043833  13.3501673  18.9070113  35.2063833  14.1251673
  21.4440113  47.1433833   6.6721673  21.9900113  47.8223833   6.7261673
  21.0940113  47.2253833   5.8771673  21.4730113  47.2563833   6.5621673
  28.2870113  30.4463833  12.0361673  28.0070113  31.2713833  11.9921673
  29.0030113  30.4993833  12.5321673  28.3520113  30.5763833  12.1031673
  20.6420113  31.1613833  14.0651673  21.3470113  31.4813833  13.6631673
  20.8830113  30.3543833  14.2921673  20.7810113  31.0893833  14.0391673
  19.6270113  45.3713833  10.0611673  19.0030113  45.9533833   9.8791673
  19.8750113  45.0853833   9.2751673  19.5710113  45.4153833   9.9181673
  23.9360113  42.0053833  17.0501673  24.6930113  42.2913833  16.7241673
  23.3890113  42.0573833  16.3721673  23.9670113  42.0553833  16.9011673
  27.8450113  44.5553833  15.5541673  28.1910113  44.8253833  16.3081673
  28.1390113  45.1373833  14.9741673  27.9400113  44.6813833  15.5801673
  17.1510113  36.2143833  10.1261673  17.5910113  36.1113833   9.3801673
  17.6960113  35.9013833  10.7311673  17.2960113  36.1533833  10.1051673
  25.1670113  35.3163833  15.7181673  24.5190113  35.7863833  16.0661673
  25.7320113  35.2273833  16.3771673  25.1550113  35.3723833  15.8671673
  24.8550113  36.8533833  12.0161673  25.1570113  37.2733833  12.7191673
  24.8910113  36.0133833  12.2481673  24.9050113  36.7913833  12.1541673
  22.2800113  47.0203833  15.9411673  22.7580113  46.4203833  15.5251673
  21.9290113  46.5773833  16.6061673  22.2990113  46.8663833  15.9781673
  27.4030113  36.3003833   4.2681673  27.6100113  36.0993833   5.0921673
  28.1590113  36.5683833   3.9261673  27.5450113  36.3103833   4.3391673
  20.6980113  31.1993833  10.1731673  19.8720113  31.0503833  10.4101673
  20.6580113  31.2343833   9.3021673  20.5700113  31.1823833  10.0791673
  28.4250113  32.3833833   5.7421673  27.7110113  31.9123833   5.9131673
  28.2630113  32.7243833   4.9561673  28.2960113  32.3643833   5.6511673
  28.8680113  40.3273833   4.1221673  29.3440113  39.5983833   4.0741673
  28.0470113  40.0413833   4.0461673  28.8170113  40.1773833   4.1031673
  22.3390113  42.2393833  14.9611673  21.5440113  42.1753833  15.3121673
  22.4100113  43.0863833  14.7661673  22.2320113  42.3543833  14.9841673
  13.2630113  31.5973833  16.2081673  13.1230113  32.3923833  15.8771673
  12.4770113  31.3543833  16.4971673  13.1260113  31.6793833  16.2021673
  18.1690113  48.4463833  10.2781673  18.1800113  48.5053833  11.1481673
  17.7440113  47.6993833  10.1281673  18.1080113  48.3443833  10.3841673
  16.3270113  34.3413833   3.4331673  16.4530113  34.0123833   2.6351673
  15.5150113  34.0923833   3.6321673  16.2260113  34.2563833   3.3451673
  25.0840113  41.4943833   6.4771673  25.1600113  41.8353833   7.2761673
  25.2530113  40.6473833   6.5981673  25.1200113  41.4193833   6.6131673
  22.6060113  40.7683833   6.0421673  22.3080113  40.4533833   6.7991673
  23.3010113  41.2413833   6.2771673  22.6650113  40.7913833   6.1891673
  22.8280113  44.8863833  14.0691673  23.5150113  44.7723833  14.5941673
  22.9620113  45.6773833  13.7251673  22.9490113  44.9863833  14.0961673
  31.0040113  37.4953833  15.8801673  30.1490113  37.3733833  16.0061673
  31.1570113  37.1003833  15.1171673  30.9000113  37.4183833  15.7861673
  25.5170113  38.1603833  14.4561673  25.2620113  37.4413833  14.8781673
  26.3380113  38.2763833  14.7261673  25.6010113  38.0713833  14.5581673
  14.9330113  47.9443833  15.7201673  14.2790113  47.3753833  15.8181673
  14.5580113  48.7173833  15.8711673  14.7810113  47.9743833  15.7571673
  23.4510113  39.3503833  17.6431673  23.7740113  40.0363833  17.2111673
  22.7470113  39.6733833  18.0451673  23.3940113  39.4993833  17.6381673
  26.5350113  47.7243833   8.5721673  26.0840113  48.3673833   8.9511673
  27.2430113  47.6453833   9.0771673  26.5730113  47.8073833   8.7031673
  23.2360113  42.8143833  11.5021673  22.5420113  43.2163833  11.8451673
  23.9130113  43.2473833  11.8411673  23.2330113  42.9373833  11.6031673
  28.6130113  45.4073833  18.0821673  29.3890113  45.0173833  18.1651673
  28.1440113  45.0713833  18.7371673  28.6580113  45.3003833  18.1911673
  16.3040113  36.3523833  13.8491673  16.6790113  36.9713833  13.3621673
  16.9780113  35.8783833  14.1341673  16.4590113  36.3743833  13.8191673
  14.0790113  34.8003833  13.1241673  14.1560113  34.6313833  12.2711673
  14.8250113  35.2063833  13.3211673  14.2000113  34.8353833  13.0271673
  29.6380113  37.4403833   3.5641673  29.7410113  37.3823833   2.7001673
  30.3790113  37.1083833   3.8821673  29.7630113  37.3833833   3.4831673
  16.6330113  32.2103833  15.5351673  16.5520113  31.3663833  15.7411673
  16.3190113  32.2543833  14.7221673  16.5750113  32.0923833  15.4451673
  23.5580113  44.4053833   4.6711673  23.3530113  45.2383833   4.5121673
  22.7830113  44.0233833   4.7931673  23.4130113  44.4723833   4.6661673
  28.7400113  37.5863833  12.9201673  28.7380113  36.7233833  13.0441673
  28.8070113  37.9103833  13.7271673  28.7500113  37.5063833  13.0571673
  13.4760113  40.0263833  13.3481673  13.7960113  40.2453833  12.5671673
  13.3760113  39.1613833  13.2931673  13.5080113  39.9313833  13.2251673
  24.6190113  32.3863833  16.7021673  24.7110113  33.0983833  17.1961673
  23.9820113  31.9413833  17.0991673  24.5380113  32.4253833  16.8341673
  23.6130113  32.5763833   7.5561673  22.9130113  33.0943833   7.5001673
  23.6510113  32.1963833   6.7721673  23.5150113  32.5973833   7.4321673
  27.2110113  33.0923833  10.3561673  28.0660113  33.1913833  10.5011673
  26.8420113  33.6453833  10.9211673  27.2830113  33.1893833  10.4611673
  18.2390113  39.3183833  14.7331673  17.8430113  40.0923833  14.8081673
  17.8330113  38.9453833  14.0571673  18.1210113  39.3773833  14.6441673
  27.5150113  38.3723833   8.8471673  28.1810113  38.9133833   9.0071673
  27.1700113  38.6833833   8.1081673  27.5620113  38.4983833   8.7621673
  27.8280113  46.4383833   4.6541673  27.6540113  45.7843833   5.2041673
  28.5410113  46.1673833   4.2311673  27.9080113  46.3013833   4.6731673
  18.6680113  32.2953833  12.1831673  17.8040113  32.3793833  12.2631673
  18.8880113  31.7813833  12.8521673  18.5730113  32.2323833  12.2941673
  30.6860113  30.9303833  13.5121673  30.6340113  30.8863833  14.3821673
  31.3730113  30.4273833  13.3221673  30.7800113  30.8503833  13.6121673
  22.7710113  33.0433833  10.5571673  22.0340113  32.5893833  10.6701673
  23.3420113  32.6413833  11.0801673  22.7460113  32.9163833  10.6511673
  25.5030113  43.8913833  12.3451673  25.7090113  44.1923833  13.1371673
  25.4420113  44.6133833  11.8601673  25.5240113  44.0423833  12.3901673
  25.0370113  48.1053833  16.5911673  24.2840113  48.0873833  16.1501673
  25.2050113  48.9573833  16.6751673  24.9510113  48.2283833  16.5381673
  20.2740113  37.3723833  15.7611673  19.9520113  36.7963833  15.1911673
  19.9150113  38.1273833  15.5151673  20.1740113  37.3983833  15.6411673
  30.3150113  42.5303833  11.8031673  30.2830113  41.6683833  11.6681673
  29.6220113  42.8323833  11.3691673  30.2080113  42.4473833  11.7191673
  18.7090113  47.7283833  16.0091673  18.7500113  47.8543833  16.8721673
  19.3600113  47.1683833  15.8531673  18.8110113  47.6643833  16.1141673
  28.4200113  45.7903833  10.6001673  28.9470113  45.7073833   9.9091673
  28.0290113  45.0123833  10.6541673  28.4400113  45.6633833  10.5061673
  15.8880113  32.3783833  12.8311673  15.5450113  31.6113833  12.5971673
  15.1930113  32.9023833  12.8951673  15.7350113  32.3423833  12.8061673
  24.9340113  31.2343833   9.8081673  25.6040113  31.7783833   9.9351673
  24.4310113  31.6583833   9.2351673  24.9590113  31.3773833   9.7421673
  16.3020113  46.1113833  17.3691673  16.8970113  46.5423833  17.8411673
  15.9380113  46.7353833  16.8801673  16.3360113  46.2673833  17.3661673
  24.2930113  37.0423833   7.3011673  24.8440113  36.4353833   7.6011673
  23.8680113  37.3053833   8.0161673  24.3120113  36.9913833   7.4501673
  14.5410113  35.6923833   6.7871673  14.1730113  35.9943833   7.5181673
  15.0750113  35.0633833   7.0711673  14.5650113  35.6443833   6.9371673
  14.2290113  44.1003833  14.2981673  13.6550113  44.5163833  14.8071673
  14.9620113  44.5653833  14.3931673  14.2530113  44.2303833  14.3871673
  26.2630113  38.8733833   3.8631673  26.3310113  38.0233833   4.0441673
  25.4400113  38.9593833   3.5851673  26.1510113  38.7603833   3.8491673
  16.0150113  47.3673833   3.0731673  15.8700113  47.5233833   2.2271673
  16.8810113  47.4463833   3.1511673  16.1220113  47.4023833   2.9601673
  20.1820113  39.7643833   2.8011673  20.2820113  39.9033833   1.9461673
  21.0000113  39.7043833   3.0971673  20.3170113  39.7753833   2.7181673
  29.5370113  40.2463833  17.0141673  30.1710113  40.0763833  17.5881673
  29.9540113  40.6493833  16.3621673  29.6920113  40.2813833  17.0031673
  25.4170113  44.0933833   2.6031673  25.1660113  43.9653833   3.4291673
  25.1000113  43.3983833   2.1821673  25.3330113  43.9723833   2.6631673
  30.1620113  34.8103833  17.7521673  29.9660113  35.4543833  18.3071673
  29.4400113  34.3203833  17.7441673  30.0270113  34.8333833  17.8331673
  30.0610113  35.7513833  10.7231673  29.2280113  36.0013833  10.6511673
  30.0050113  34.9113833  10.9521673  29.9300113  35.6643833  10.7461673
  19.3210113  32.7393833  15.9171673  19.5550113  32.1633833  15.3041673
  18.4790113  32.5583833  16.0581673  19.2310113  32.6273833  15.8471673
  26.9480113  40.3573833  18.3691673  27.8190113  40.3213833  18.3331673
  26.7290113  40.7773833  17.6371673  27.0450113  40.4133833  18.2561673
  16.7020113  46.1823833   9.5501673  16.6230113  45.3723833   9.2341673
  16.2580113  46.6693833   8.9781673  16.6250113  46.1343833   9.4191673
  22.3030113  42.3013833   2.0331673  23.0200113  41.9543833   1.6771673
  22.2690113  43.1013833   1.6851673  22.4040113  42.3683833   1.9291673
  14.2740113  48.4263833  13.1311673  14.7670113  48.3703833  13.8491673
  14.4620113  47.6933833  12.6961673  14.3750113  48.3093833  13.1731673
  23.7120113  12.4642753  81.3031313  23.4670113  12.9522753  80.6231313
  24.5750113  12.3912753  81.2031313  23.8030113  12.5252753  81.1881313
  23.5210113  19.3802753  85.9741313  22.9970113  19.9762753  86.3371313
  23.9180113  19.0122753  86.6581313  23.5020113  19.4142753  86.1291313
  13.3900113  23.5202753  81.4301313  12.9490113  23.6382753  82.1731313
  13.1070113  22.7452753  81.1451313  13.2830113  23.4232753  81.4981313
  29.6650113  26.8212753  78.9451313  30.3660113  26.3022753  78.9411313
  29.0780113  26.3762753  78.4761313  29.6820113  26.6782753  78.8751313
  13.1330113  17.3122753  77.9371313  12.3550113  17.4742753  77.5771313
  13.1720113  16.4412753  77.9591313  13.0240113  17.2072753  77.8871313
  16.2720113  22.5752753  76.6091313  15.8800113  22.2042753  75.9231313
  16.1920113  21.9772753  77.2381313  16.2020113  22.4322753  76.6001313
  26.1920113  20.4472753  82.6501313  26.2720113  20.4512753  81.7811313
  25.6080113  19.8152753  82.7991313  26.1170113  20.3542753  82.5441313
  15.8990113  24.2162753  80.5091313  16.5070113  24.0462753  81.1121313
  15.1480113  24.0762753  80.9301313  15.8780113  24.1702753  80.6601313
  20.1810113  13.5512753  80.4581313  20.1110113  14.2282753  79.9121313
  20.9220113  13.1632753  80.2091313  20.2800113  13.5942753  80.3401313
  14.7900113  27.3072753  76.5861313  15.2570113  27.3912753  75.8541313
  15.2450113  26.7292753  77.0551313  14.9260113  27.2342753  76.5471313
  13.3300113  26.2552753  87.6851313  13.4590113  25.9752753  88.5011313
  12.7200113  25.7142753  87.3761313  13.2590113  26.1342753  87.7601313
  14.7760113  20.7762753  81.8871313  14.3140113  20.3842753  81.2601313
  15.4760113  20.2632753  81.9791313  14.8110113  20.6432753  81.8081313
  19.2840113  16.3862753  87.2341313  19.9620113  16.4042753  86.6851313
  19.2390113  15.5502753  87.4791313  19.3770113  16.2652753  87.1891313
  19.8860113  26.9722753  90.0151313  20.0240113  27.7322753  89.6081313
  20.6770113  26.6072753  90.0421313  20.0230113  27.0312753  89.9591313
  16.7770113  18.8762753  81.9101313  17.5940113  18.6892753  82.1531313
  16.3000113  18.2622753  82.3061313  16.8270113  18.7582753  82.0051313
  20.9810113  24.8572753  84.5201313  21.3290113  24.0582753  84.5501313
  21.6460113  25.3612753  84.2651313  21.1310113  24.8132753  84.4871313
  21.0380113  24.3062753  80.7311313  21.3690113  23.6622753  81.2171313
  21.2780113  24.0952753  79.9201313  21.1220113  24.1802753  80.6831313
  23.0060113  18.4372753  92.0701313  22.1580113  18.3382753  91.8921313
  23.0350113  19.1822753  92.5241313  22.8850113  18.5332753  92.1111313
  17.3740113  13.9702753  81.1761313  17.0780113  14.4712753  80.5261313
  18.2410113  14.0482753  81.1191313  17.4580113  14.0562753  81.0721313
  27.5640113  11.3972753  91.1841313  27.4060113  12.1662753  90.8021313
  26.7920113  11.1772753  91.5281313  27.4260113  11.4782753  91.1791313
  20.3530113  13.1122753  83.3991313  20.4260113  13.9722753  83.5281313
  20.3150113  13.0372753  82.5311313  20.3580113  13.2282753  83.2901313
  25.0260113  16.0382753  75.6981313  24.5760113  16.7192753  76.0051313
  25.1400113  15.5342753  76.4011313  24.9770113  16.0642753  75.8471313
  13.2320113  18.5372753  84.9001313  12.9760113  19.3682753  84.8251313
  12.5680113  18.1542753  85.3171313  13.0960113  18.6032753  84.9511313
  13.1420113  28.2472753  82.8001313  12.5500113  28.8052753  82.4871313
  13.5680113  27.9782753  82.0881313  13.1180113  28.2892753  82.6491313
  18.9820113  26.0912753  80.2801313  18.4030113  25.8162753  80.8721313
  19.6060113  25.4822753  80.3051313  18.9890113  25.9612753  80.3711313
  25.1250113  28.3792753  77.8021313  25.8520113  28.8512753  77.9041313
  25.3540113  27.5852753  78.0821313  25.2670113  28.3322753  77.8591313
  23.2930113  28.7712753  79.7921313  23.5070113  29.2982753  80.4541313
  24.0600113  28.5972753  79.4131313  23.4380113  28.8232753  79.8341313
  16.2610113  13.3542753  85.3911313  15.7400113  12.7262753  85.0831313
  16.8520113  12.9172753  85.8621313  16.2720113  13.1962753  85.4151313
  14.6870113  26.9172753  80.7311313  15.3430113  26.3422753  80.7461313
  15.0760113  27.6662753  80.5101313  14.8420113  26.9422753  80.7011313
  30.4200113  16.0112753  81.9931313  30.0740113  16.6892753  82.4191313
  29.7840113  15.4132753  82.0091313  30.2750113  16.0232753  82.0581313
  25.7320113  28.7812753  88.0971313  26.4760113  29.2372753  88.0871313
  25.6110113  28.5672753  87.2601313  25.8240113  28.8172753  87.9721313
  15.5050113  25.4042753  84.2311313  15.9280113  25.0482753  83.5571313
  15.8290113  24.9822753  84.9231313  15.6150113  25.2892753  84.2341313
  18.7360113  28.2562753  83.5271313  19.5800113  28.3602753  83.3321313
  18.4390113  29.0742753  83.5951313  18.8170113  28.3922753  83.5081313
  22.5430113  17.6532753  81.6141313  22.8300113  17.4212753  80.8241313
  23.2750113  17.7322753  82.0831313  22.6930113  17.6302753  81.5671313
  23.2650113  17.9922753  76.7351313  23.5460113  18.7802753  76.9841313
  22.4890113  18.1572753  76.3721313  23.1920113  18.1332753  76.7181313
  27.3060113  29.9662753  78.2021313  27.9710113  29.8182753  77.6571313
  27.6660113  29.8832753  78.9921313  27.4580113  29.9322753  78.2381313
  17.7340113  29.4752753  89.2671313  18.0260113  29.4082753  90.0871313
  17.1080113  28.8702753  89.2221313  17.6850113  29.3762753  89.3821313
  30.0950113  14.3342753  87.3621313  30.8520113  14.4062753  86.9341313
  30.1580113  13.5612753  87.7611313  30.2160113  14.2312753  87.3571313
  12.6480113  15.6322753  91.2591313  12.6440113  16.2192753  91.9051313
  13.2420113  15.9442753  90.7021313  12.7350113  15.7652753  91.2721313
  24.9860113  25.9662753  91.8011313  24.9520113  26.3482753  92.5851313
  25.8400113  25.9242753  91.6301313  25.1070113  26.0162753  91.8921313
  22.1240113  26.1632753  76.5511313  21.9430113  26.7082753  77.2081313
  22.8900113  26.4532753  76.2501313  22.2100113  26.2872753  76.6041313
  25.6310113  14.0592753  77.6051313  26.1710113  13.3772753  77.6811313
  25.6930113  14.4572753  78.3791313  25.7200113  14.0172753  77.7311313
  13.5850113  15.2272753  80.1741313  13.4710113  14.3632753  80.2051313
  13.1100113  15.5212753  80.8441313  13.4980113  15.1432753  80.2771313
  15.7270113  27.6372753  88.3891313  15.0290113  27.1292753  88.5151313
  15.9870113  27.4322753  87.5811313  15.6620113  27.5322753  88.2881313
  22.8890113  16.4352753  78.9191313  22.3810113  15.7732753  78.6651313
  22.9410113  16.9392753  78.2091313  22.8220113  16.4122753  78.7771313
  23.4380113  29.1302753  89.2991313  24.2060113  29.0502753  88.8931313
  22.8550113  29.0092753  88.6611313  23.4650113  29.1002753  89.1451313
  22.8890113  13.3762753  78.8101313  22.4340113  12.9742753  78.1841313
  23.6620113  13.5312753  78.4351313  22.9360113  13.3402753  78.6621313
  29.7150113  29.7332753  82.2001313  29.2600113  30.4502753  82.4011313
  29.1010113  29.1622753  81.9581313  29.5570113  29.7552753  82.1941313
  21.4870113  15.7432753  83.3321313  21.5610113  16.3112753  82.6741313
  21.6080113  16.2352753  84.0421313  21.5150113  15.9002753  83.3401313
  26.7120113  25.5782753  81.7441313  27.4130113  25.0962753  81.9331313
  26.0520113  25.0092753  81.7891313  26.7180113  25.4232753  81.7781313
  17.0880113  26.4882753  90.9561313  17.9290113  26.5512753  90.7341313
  17.0510113  26.8852753  91.7321313  17.2070113  26.5562753  91.0381313
  16.0950113  11.5662753  81.6801313  16.6310113  12.2542753  81.6701313
  16.0980113  11.2922753  80.8521313  16.1740113  11.6272753  81.5561313
  19.0510113  21.9992753  85.7051313  19.2230113  21.7892753  86.5341313
  18.3960113  21.4652753  85.4891313  18.9800113  21.8892753  85.7961313
  25.2790113  15.9132753  89.2201313  25.1840113  16.2322753  90.0261313
  24.6860113  15.2742753  89.1821313  25.1770113  15.8652753  89.3341313
  19.8010113  21.9372753  88.2951313  19.8540113  22.7842753  88.4971313
  19.5160113  21.5672753  89.0321313  19.7670113  22.0072753  88.4331313
  25.9780113  22.6322753  87.4251313  25.4640113  22.2202753  87.9961313
  25.8520113  23.4762753  87.6061313  25.8840113  22.6962753  87.5361313
  26.5350113  11.8572753  82.0561313  26.5840113  11.5392753  82.8671313
  26.8580113  11.2132753  81.5631313  26.5900113  11.7152753  82.1031313
  28.9990113  16.0932753  90.3641313  29.7710113  15.8682753  90.7011313
  28.5240113  16.3102753  91.0641313  29.0430113  16.0922753  90.5171313
  16.5430113  15.3762753  83.3341313  16.8150113  14.9462753  82.6261313
  16.3670113  14.7402753  83.9051313  16.5570113  15.2192753  83.3141313
  29.2310113  23.0712753  77.5521313  29.3500113  22.7842753  78.3671313
  30.0380113  23.0922753  77.2221313  29.3670113  23.0322753  77.6241313
  16.3670113  22.8032753  82.8831313  17.2180113  22.7232753  82.7101313
  16.0100113  22.1212753  82.4711313  16.4400113  22.6902753  82.7961313
  15.1340113  29.5282753  84.1201313  14.4610113  29.0302753  83.8751313
  15.5370113  29.7132753  83.3691313  15.0940113  29.4822753  83.9731313
  14.6840113  16.4782753  86.4161313  15.5270113  16.6982753  86.3731313
  14.2950113  17.0512753  85.8851313  14.7510113  16.5952753  86.3311313
  31.4650113  27.5802753  91.8061313  30.7830113  27.8902753  91.3591313
  31.0960113  27.1222753  92.4511313  31.3090113  27.5582753  91.8351313
  27.1260113  19.6082753  77.1371313  26.9060113  20.3392753  76.7151313
  26.6780113  19.6592753  77.8841313  27.0270113  19.7232753  77.1851313
  18.7350113  22.8102753  81.1181313  19.4480113  23.3052753  81.2081313
  18.9570113  22.2432753  80.4921313  18.8730113  22.7992753  81.0391313
  31.3130113  14.4692753  76.5901313  30.6510113  13.9012753  76.6131313
  31.1200113  14.9812753  75.9101313  31.1870113  14.4612753  76.4931313
  12.8910113  24.4532753  84.4381313  12.2240113  24.9412753  84.7141313
  13.5710113  24.9982753  84.4671313  12.8930113  24.6052753  84.4831313
  31.6360113  18.8472753  89.1461313  31.8510113  18.0472753  88.8701313
  30.7860113  18.9072753  88.9571313  31.5420113  18.7382753  89.0771313
  12.9570113  21.1372753  79.5411313  12.7720113  20.2982753  79.6931313
  13.6160113  21.1012753  78.9711313  13.0270113  21.0082753  79.4791313
  29.3150113  14.0272753  78.8691313  30.0610113  13.6202753  79.0681313
  29.5780113  14.7422753  78.4441313  29.4640113  14.0732753  78.8361313
  23.2580113  26.5132753  83.4451313  22.7350113  27.1472753  83.1521313
  23.5680113  26.1492753  82.7161313  23.2260113  26.5532753  83.2941313
  13.1290113  25.3012753  79.1161313  13.6810113  25.8702753  79.4801313
  12.8970113  24.7862753  79.7811313  13.1760113  25.3092753  79.2681313
  17.3330113  24.3012753  86.2051313  17.8000113  24.5902753  86.8831313
  17.9050113  23.8232753  85.7511313  17.4870113  24.2732753  86.2381313
  25.7690113  16.3152753  83.9421313  26.1130113  16.4672753  84.7291313
  25.3160113  15.5772753  84.0551313  25.7530113  16.2282753  84.0751313
  12.9590113  23.7502753  76.7441313  13.7150113  23.3182753  76.8021313
  12.9740113  24.2822753  77.4351313  13.0730113  23.7652753  76.8551313
  13.8990113  21.9712753  84.7491313  14.3300113  21.8422753  84.0021313
  13.6940113  22.8192753  84.7231313  13.9320113  22.0772753  84.6351313
  20.2450113  15.5352753  78.3991313  20.2430113  15.4182753  77.5341313
  20.0640113  16.3832753  78.4911313  20.2180113  15.6432753  78.2851313
  29.2990113  27.9622753  89.8961313  28.6280113  28.4762753  90.1141313
  29.3620113  28.0622753  89.0321313  29.2090113  28.0532753  89.8011313
  17.9830113  25.4872753  83.0311313  18.1090113  26.3302753  83.2181313
  18.6510113  25.0882753  83.4271313  18.1010113  25.5532753  83.1171313
  16.5980113  18.3672753  78.0331313  16.4700113  17.9192753  78.7711313
  16.0160113  18.0252753  77.4811313  16.4930113  18.2502753  78.0611313
  16.7650113  20.1972753  84.6321313  15.9840113  20.1382753  84.2491313
  16.8370113  19.4452753  85.0691313  16.6600113  20.0782753  84.6401313
  17.1950113  19.9342753  88.1001313  17.2200113  19.2592753  87.5491313
  16.5490113  20.4302753  87.7881313  17.1040113  19.9072753  87.9731313
  27.0900113  17.6472753  86.4961313  26.4280113  17.9752753  86.9591313
  27.2770113  18.2812753  85.9271313  27.0200113  17.7892753  86.4801313
  21.2950113  28.7112753  87.4921313  21.0180113  28.0702753  86.9691313
  21.0870113  29.4372753  87.0541313  21.2240113  28.7242753  87.3501313
  23.7350113  13.5532753  89.9251313  23.8840113  12.7282753  89.6821313
  24.1140113  13.6082753  90.7091313  23.8130113  13.4392753  90.0051313
  25.2830113  15.6162753  80.0071313  25.7730113  16.3332753  79.9301313
  24.4930113  15.8772753  79.7441313  25.2390113  15.7602753  79.9571313
  26.5970113  23.4942753  91.9171313  27.0810113  24.2122753  92.0151313
  26.9910113  23.0672753  91.2661313  26.7270113  23.5372753  91.8351313
  21.8650113  17.0862753  85.7321313  22.3450113  17.7852753  85.9401313
  22.2380113  16.4392753  86.1831313  21.9910113  17.0942753  85.8291313
  24.0540113  20.2552753  78.0061313  24.0460113  20.9772753  77.5161313
  23.4150113  20.3902753  78.5831313  23.9590113  20.3822753  78.0191313
  29.0260113  24.1252753  81.9871313  29.3820113  23.7752753  82.7021313
  29.0180113  23.4642753  81.4171313  29.0780113  23.9752753  82.0081313
  25.0710113  27.1912753  85.8311313  24.4680113  26.8952753  85.2741313
  25.6160113  27.6432753  85.3221313  25.0620113  27.2142753  85.6731313
  25.0840113  24.0422753  85.2311313  24.2870113  24.2662753  85.5051313
  25.3420113  23.4482753  85.8161313  25.0040113  23.9872753  85.3581313
  18.9760113  28.8542753  79.6791313  18.8290113  28.0782753  80.0501313
  19.6650113  28.7072753  79.1641313  19.0560113  28.7172753  79.6581313
  18.6470113  12.5972753  77.6671313  18.7440113  12.4902753  78.5281313
  17.9390113  13.1032753  77.6021313  18.5570113  12.6562753  77.7851313
  21.2680113  28.3702753  78.0811313  21.8900113  28.5332753  78.6711313
  21.3040113  29.0612753  77.5491313  21.3650113  28.4962753  78.0901313
  28.3440113  22.0402753  90.0771313  28.3990113  22.1652753  89.2151313
  29.0970113  22.3602753  90.3791313  28.4630113  22.1052753  89.9941313
  15.7690113  20.9042753  78.9101313  16.0930113  20.1252753  78.6881313
  16.4150113  21.2722753  79.3651313  15.9120113  20.8432753  78.9441313
  24.0750113  21.8462753  89.6771313  23.9200113  22.4562753  90.2811313
  24.6090113  21.2882753  90.0831313  24.1310113  21.8542753  89.8261313
  12.7660113  12.5652753  79.8781313  12.8950113  11.8572753  79.3861313
  12.3990113  12.2472753  80.6031313  12.7310113  12.4132753  79.9131313
  22.4590113  20.2462753  80.3351313  22.5180113  20.8962753  80.9141313
  22.2700113  19.5502753  80.8261313  22.4400113  20.2392753  80.4931313
  27.6850113  24.5752753  86.2041313  27.2060113  24.8732753  85.5381313
  27.3290113  23.7992753  86.3821313  27.5620113  24.5042753  86.1321313
  16.9550113  14.7632753  76.8471313  16.4440113  14.8162753  76.1411313
  17.7390113  15.0032753  76.5511313  16.9950113  14.8062753  76.6991313
  21.6820113  22.2932753  84.7661313  20.8350113  22.0992753  84.8471313
  22.0060113  22.1282753  85.5591313  21.6040113  22.2402753  84.8951313
  18.4340113  29.0232753  75.6521313  18.8730113  28.3262753  75.9401313
  18.6410113  29.6472753  76.2251313  18.5300113  29.0122753  75.7791313
  15.5300113  21.9862753  87.0821313  16.2520113  22.4742753  87.0451313
  15.2600113  21.9562753  86.2531313  15.5970113  22.0542753  86.9541313
  18.7600113  17.1572753  83.8171313  19.6060113  16.9672753  83.9151313
  18.3900113  16.3802753  83.6791313  18.8300113  17.0142753  83.8111313
  31.3770113  28.7412753  78.1441313  32.0710113  28.2742753  77.8961313
  30.8380113  28.1432753  78.4811313  31.4000113  28.5832753  78.1571313
  13.5810113  18.4952753  80.4721313  14.0700113  18.2032753  81.1331313
  13.7100113  17.9022753  79.8451313  13.6720113  18.3642753  80.4771313
  28.6160113  21.5172753  87.3231313  28.6090113  20.7412753  87.7211313
  27.7750113  21.7512753  87.3161313  28.4910113  21.4372753  87.3811313
  18.1060113  19.9292753  75.9581313  17.4960113  19.5242753  76.4321313
  17.7200113  20.0472753  75.1851313  17.9590113  19.8862753  75.9141313
  14.9250113  23.0382753  91.3601313  14.5040113  22.5202753  90.7991313
  14.5730113  23.8242753  91.2171313  14.8110113  23.0782753  91.2561313
  29.8720113  21.5882753  84.7601313  29.5860113  21.9892753  85.4801313
  30.7320113  21.5262753  84.8871313  29.9570113  21.6382753  84.8851313
  19.5610113  18.3902753  78.6681313  19.8330113  19.2162753  78.7351313
  18.6980113  18.4652753  78.5721313  19.4740113  18.5232753  78.6631313
  13.0410113  14.3602753  85.2041313  13.0850113  14.7042753  84.4031313
  13.7960113  14.5972753  85.5711313  13.1590113  14.4462753  85.1401313
  31.0030113  27.2212753  85.2891313  31.2930113  27.4782753  84.5081313
  31.6980113  27.3172753  85.8081313  31.1490113  27.2732753  85.2501313
  28.2940113  19.4002753  91.7411313  28.6130113  20.1862753  91.9441313
  27.9240113  19.1302753  92.4841313  28.2870113  19.4762753  91.8811313
  27.6080113  25.8242753  77.2711313  27.9420113  25.0182753  77.3061313
  26.8530113  25.7522753  77.7011313  27.5460113  25.6942753  77.3401313
  28.0900113  17.6582753  82.9301313  27.3450113  17.3352753  83.2481313
  28.0920113  18.4842753  83.2101313  27.9800113  17.7322753  83.0181313
  30.5300113  23.6182753  90.6821313  31.1580113  23.0692753  90.4261313
  30.4690113  24.1832753  90.0201313  30.6140113  23.6212753  90.5461313
  24.9820113  23.6992753  76.6741313  25.6660113  23.1852753  76.5051313
  24.5650113  23.7452753  75.9091313  25.0210113  23.6302753  76.5361313
  19.6640113  24.8492753  87.9781313  19.3660113  25.4412753  88.5451313
  19.7190113  25.2912753  87.2291313  19.6280113  25.0022753  87.9511313
  17.6430113  23.7992753  91.3761313  16.8370113  23.5092753  91.5431313
  17.5540113  24.6672753  91.3821313  17.5110113  23.8842753  91.4011313
  27.0020113  13.9882753  90.3911313  27.7460113  14.4402753  90.3281313
  26.4360113  14.4582753  89.9221313  27.0290113  14.1252753  90.3131313
  22.1800113  21.2722753  87.4691313  22.6560113  21.6462753  88.0971313
  21.3570113  21.4062753  87.7281313  22.1290113  21.3472753  87.6001313
  18.8900113  16.8752753  90.2101313  19.0510113  16.1312753  90.6371313
  18.8450113  16.6262753  89.3751313  18.9070113  16.7282753  90.1501313
  21.4440113  28.6652753  82.6971313  21.9900113  29.3442753  82.7511313
  21.0940113  28.7472753  81.9021313  21.4730113  28.7782753  82.5871313
  28.2870113  11.9682753  88.0611313  28.0070113  12.7932753  88.0171313
  29.0030113  12.0212753  88.5571313  28.3520113  12.0982753  88.1281313
  20.6420113  12.6832753  90.0901313  21.3470113  13.0032753  89.6881313
  20.8830113  11.8762753  90.3171313  20.7810113  12.6112753  90.0641313
  19.6270113  26.8932753  86.0861313  19.0030113  27.4752753  85.9041313
  19.8750113  26.6072753  85.3001313  19.5710113  26.9372753  85.9431313
  27.8450113  26.0772753  91.5791313  28.1910113  26.3472753  92.3331313
  28.1390113  26.6592753  90.9991313  27.9400113  26.2032753  91.6051313
  29.7080113  18.2232753  76.9181313  30.0860113  18.9002753  76.5181313
  28.8660113  18.4472753  76.9491313  29.6390113  18.3562753  76.8631313
  21.2210113  21.6692753  76.0011313  20.4160113  21.4922753  75.7161313
  21.1880113  22.5202753  76.1931313  21.0970113  21.7682753  75.9881313
  17.1510113  17.7362753  86.1511313  17.5910113  17.6332753  85.4051313
  17.6960113  17.4232753  86.7561313  17.2960113  17.6752753  86.1301313
  25.1670113  16.8382753  91.7431313  24.5190113  17.3082753  92.0911313
  25.7320113  16.7492753  92.4021313  25.1550113  16.8942753  91.8921313
  24.8550113  18.3752753  88.0411313  25.1570113  18.7952753  88.7441313
  24.8910113  17.5352753  88.2731313  24.9050113  18.3132753  88.1791313
  22.2800113  28.5422753  91.9661313  22.7580113  27.9422753  91.5501313
  21.9290113  28.0992753  92.6311313  22.2990113  28.3882753  92.0031313
  27.4030113  17.8222753  80.2931313  27.6100113  17.6212753  81.1171313
  28.1590113  18.0902753  79.9511313  27.5450113  17.8322753  80.3641313
  20.6980113  12.7212753  86.1981313  19.8720113  12.5722753  86.4351313
  20.6580113  12.7562753  85.3271313  20.5700113  12.7042753  86.1041313
  28.4250113  13.9052753  81.7671313  27.7110113  13.4342753  81.9381313
  28.2630113  14.2462753  80.9811313  28.2960113  13.8862753  81.6761313
  28.8680113  21.8492753  80.1471313  29.3440113  21.1202753  80.0991313
  28.0470113  21.5632753  80.0711313  28.8170113  21.6992753  80.1281313
  22.3390113  23.7612753  90.9861313  21.5440113  23.6972753  91.3371313
  22.4100113  24.6082753  90.7911313  22.2320113  23.8762753  91.0091313
  13.2630113  13.1192753  92.2331313  13.1230113  13.9142753  91.9021313
  12.4770113  12.8762753  92.5221313  13.1260113  13.2012753  92.2271313
  18.1690113  29.9682753  86.3031313  18.1800113  30.0272753  87.1731313
  17.7440113  29.2212753  86.1531313  18.1080113  29.8662753  86.4091313
  16.3270113  15.8632753  79.4581313  16.4530113  15.5342753  78.6601313
  15.5150113  15.6142753  79.6571313  16.2260113  15.7782753  79.3701313
  25.0840113  23.0162753  82.5021313  25.1600113  23.3572753  83.3011313
  25.2530113  22.1692753  82.6231313  25.1200113  22.9412753  82.6381313
  22.6060113  22.2902753  82.0671313  22.3080113  21.9752753  82.8241313
  23.3010113  22.7632753  82.3021313  22.6650113  22.3132753  82.2141313
  22.8280113  26.4082753  90.0941313  23.5150113  26.2942753  90.6191313
  22.9620113  27.1992753  89.7501313  22.9490113  26.5082753  90.1211313
  31.0040113  19.0172753  91.9051313  30.1490113  18.8952753  92.0311313
  31.1570113  18.6222753  91.1421313  30.9000113  18.9402753  91.8111313
  25.5170113  19.6822753  90.4811313  25.2620113  18.9632753  90.9031313
  26.3380113  19.7982753  90.7511313  25.6010113  19.5932753  90.5831313
  14.9330113  29.4662753  91.7451313  14.2790113  28.8972753  91.8431313
  14.5580113  30.2392753  91.8961313  14.7810113  29.4962753  91.7821313
  26.5350113  29.2462753  84.5971313  26.0840113  29.8892753  84.9761313
  27.2430113  29.1672753  85.1021313  26.5730113  29.3292753  84.7281313
  23.2360113  24.3362753  87.5271313  22.5420113  24.7382753  87.8701313
  23.9130113  24.7692753  87.8661313  23.2330113  24.4592753  87.6281313
  16.3040113  17.8742753  89.8741313  16.6790113  18.4932753  89.3871313
  16.9780113  17.4002753  90.1591313  16.4590113  17.8962753  89.8441313
  14.0790113  16.3222753  89.1491313  14.1560113  16.1532753  88.2961313
  14.8250113  16.7282753  89.3461313  14.2000113  16.3572753  89.0521313
  29.6380113  18.9622753  79.5891313  29.7410113  18.9042753  78.7251313
  30.3790113  18.6302753  79.9071313  29.7630113  18.9052753  79.5081313
  16.6330113  13.7322753  91.5601313  16.5520113  12.8882753  91.7661313
  16.3190113  13.7762753  90.7471313  16.5750113  13.6142753  91.4701313
  23.5580113  25.9272753  80.6961313  23.3530113  26.7602753  80.5371313
  22.7830113  25.5452753  80.8181313  23.4130113  25.9942753  80.6911313
  28.7400113  19.1082753  88.9451313  28.7380113  18.2452753  89.0691313
  28.8070113  19.4322753  89.7521313  28.7500113  19.0282753  89.0821313
  13.4760113  21.5482753  89.3731313  13.7960113  21.7672753  88.5921313
  13.3760113  20.6832753  89.3181313  13.5080113  21.4532753  89.2501313
  14.9320113  17.4842753  75.9911313  14.2600113  17.4982753  76.5471313
  15.0270113  16.6362753  75.8071313  14.8470113  17.3612753  76.0461313
  23.6130113  14.0982753  83.5811313  22.9130113  14.6162753  83.5251313
  23.6510113  13.7182753  82.7971313  23.5150113  14.1192753  83.4571313
  18.9200113  26.1892753  77.1051313  19.3610113  26.2692753  77.8531313
  18.1150113  25.9732753  77.3631313  18.8660113  26.1692753  77.2541313
  27.2110113  14.6142753  86.3811313  28.0660113  14.7132753  86.5261313
  26.8420113  15.1672753  86.9461313  27.2830113  14.7112753  86.4861313
  18.2390113  20.8402753  90.7581313  17.8430113  21.6142753  90.8331313
  17.8330113  20.4672753  90.0821313  18.1210113  20.8992753  90.6691313
  27.5150113  19.8942753  84.8721313  28.1810113  20.4352753  85.0321313
  27.1700113  20.2052753  84.1331313  27.5620113  20.0202753  84.7871313
  27.8280113  27.9602753  80.6791313  27.6540113  27.3062753  81.2291313
  28.5410113  27.6892753  80.2561313  27.9080113  27.8232753  80.6981313
  16.2490113  25.2592753  77.7061313  16.0050113  24.9522753  78.4861313
  16.2160113  24.5562753  77.1901313  16.2080113  25.1102753  77.7451313
  19.0680113  23.5042753  76.4491313  18.2500113  23.2362753  76.5891313
  19.0400113  24.3562753  76.6341313  18.9430113  23.5912753  76.4971313
  18.6680113  13.8172753  88.2081313  17.8040113  13.9012753  88.2881313
  18.8880113  13.3032753  88.8771313  18.5730113  13.7542753  88.3191313
  30.6860113  12.4522753  89.5371313  30.6340113  12.4082753  90.4071313
  31.3730113  11.9492753  89.3471313  30.7800113  12.3722753  89.6371313
  22.7710113  14.5652753  86.5821313  22.0340113  14.1112753  86.6951313
  23.3420113  14.1632753  87.1051313  22.7460113  14.4382753  86.6761313
  25.5030113  25.4132753  88.3701313  25.7090113  25.7142753  89.1621313
  25.4420113  26.1352753  87.8851313  25.5240113  25.5642753  88.4151313
  20.2740113  18.8942753  91.7861313  19.9520113  18.3182753  91.2161313
  19.9150113  19.6492753  91.5401313  20.1740113  18.9202753  91.6661313
  21.0700113  12.1462753  76.4131313  21.1480113  12.3932753  75.5801313
  20.3270113  12.5232753  76.6711313  20.9720113  12.2382753  76.3281313
  30.3150113  24.0522753  87.8281313  30.2830113  23.1902753  87.6931313
  29.6220113  24.3542753  87.3941313  30.2080113  23.9692753  87.7441313
  28.4200113  27.3122753  86.6251313  28.9470113  27.2292753  85.9341313
  28.0290113  26.5342753  86.6791313  28.4400113  27.1852753  86.5311313
  15.8880113  13.9002753  88.8561313  15.5450113  13.1332753  88.6221313
  15.1930113  14.4242753  88.9201313  15.7350113  13.8642753  88.8311313
  24.9340113  12.7562753  85.8331313  25.6040113  13.3002753  85.9601313
  24.4310113  13.1802753  85.2601313  24.9590113  12.8992753  85.7671313
  24.2930113  18.5642753  83.3261313  24.8440113  17.9572753  83.6261313
  23.8680113  18.8272753  84.0411313  24.3120113  18.5132753  83.4751313
  14.5410113  17.2142753  82.8121313  14.1730113  17.5162753  83.5431313
  15.0750113  16.5852753  83.0961313  14.5650113  17.1662753  82.9621313
  14.2290113  25.6222753  90.3231313  13.6550113  26.0382753  90.8321313
  14.9620113  26.0872753  90.4181313  14.2530113  25.7522753  90.4121313
  26.2630113  20.3952753  79.8881313  26.3310113  19.5452753  80.0691313
  25.4400113  20.4812753  79.6101313  26.1510113  20.2822753  79.8741313
  16.0150113  28.8892753  79.0981313  15.8700113  29.0452753  78.2521313
  16.8810113  28.9682753  79.1761313  16.1220113  28.9242753  78.9851313
  20.1820113  21.2862753  78.8261313  20.2820113  21.4252753  77.9711313
  21.0000113  21.2262753  79.1221313  20.3170113  21.2972753  78.7431313
  29.3420113  29.3502753  76.3061313  29.9790113  29.2162753  76.8871313
  29.0010113  28.5562753  76.1891313  29.3860113  29.2132753  76.3741313
  25.4170113  25.6152753  78.6281313  25.1660113  25.4872753  79.4541313
  25.1000113  24.9202753  78.2071313  25.3330113  25.4942753  78.6881313
  30.0610113  17.2732753  86.7481313  29.2280113  17.5232753  86.6761313
  30.0050113  16.4332753  86.9771313  29.9300113  17.1862753  86.7711313
  19.3210113  14.2612753  91.9421313  19.5550113  13.6852753  91.3291313
  18.4790113  14.0802753  92.0831313  19.2310113  14.1492753  91.8721313
  16.7020113  27.7042753  85.5751313  16.6230113  26.8942753  85.2591313
  16.2580113  28.1912753  85.0031313  16.6250113  27.6562753  85.4441313
  22.3030113  23.8232753  78.0581313  23.0200113  23.4762753  77.7021313
  22.2690113  24.6232753  77.7101313  22.4040113  23.8902753  77.9541313
  14.2740113  29.9482753  89.1561313  14.7670113  29.8922753  89.8741313
  14.4620113  29.2152753  88.7211313  14.3750113  29.8312753  89.1981313
  23.7120113  12.4642753  62.2968903  23.4670113  12.9522753  61.6168903
  24.5750113  12.3912753  62.1968903  23.8030113  12.5252753  62.1818903
  23.5210113  19.3802753  66.9678903  22.9970113  19.9762753  67.3308903
  23.9180113  19.0122753  67.6518903  23.5020113  19.4142753  67.1228903
  13.3900113  23.5202753  62.4238903  12.9490113  23.6382753  63.1668903
  13.1070113  22.7452753  62.1388903  13.2830113  23.4232753  62.4918903
  29.6650113  26.8212753  59.9388903  30.3660113  26.3022753  59.9348903
  29.0780113  26.3762753  59.4698903  29.6820113  26.6782753  59.8688903
  13.1330113  17.3122753  58.9308903  12.3550113  17.4742753  58.5708903
  13.1720113  16.4412753  58.9528903  13.0240113  17.2072753  58.8808903
  16.2720113  22.5752753  57.6028903  15.8800113  22.2042753  56.9168903
  16.1920113  21.9772753  58.2318903  16.2020113  22.4322753  57.5938903
  26.1920113  20.4472753  63.6438903  26.2720113  20.4512753  62.7748903
  25.6080113  19.8152753  63.7928903  26.1170113  20.3542753  63.5378903
  15.8990113  24.2162753  61.5028903  16.5070113  24.0462753  62.1058903
  15.1480113  24.0762753  61.9238903  15.8780113  24.1702753  61.6538903
  20.1810113  13.5512753  61.4518903  20.1110113  14.2282753  60.9058903
  20.9220113  13.1632753  61.2028903  20.2800113  13.5942753  61.3338903
  14.7900113  27.3072753  57.5798903  15.2570113  27.3912753  56.8478903
  15.2450113  26.7292753  58.0488903  14.9260113  27.2342753  57.5408903
  13.3300113  26.2552753  68.6788903  13.4590113  25.9752753  69.4948903
  12.7200113  25.7142753  68.3698903  13.2590113  26.1342753  68.7538903
  19.9040113  23.7802753  73.7458903  19.6680113  23.7772753  74.5858903
  19.1560113  23.6322753  73.3218903  19.7580113  23.7572753  73.8068903
  14.7760113  20.7762753  62.8808903  14.3140113  20.3842753  62.2538903
  15.4760113  20.2632753  62.9728903  14.8110113  20.6432753  62.8018903
  19.2840113  16.3862753  68.2278903  19.9620113  16.4042753  67.6788903
  19.2390113  15.5502753  68.4728903  19.3770113  16.2652753  68.1828903
  19.8860113  26.9722753  71.0088903  20.0240113  27.7322753  70.6018903
  20.6770113  26.6072753  71.0358903  20.0230113  27.0312753  70.9528903
  16.7770113  18.8762753  62.9038903  17.5940113  18.6892753  63.1468903
  16.3000113  18.2622753  63.2998903  16.8270113  18.7582753  62.9988903
  20.9810113  24.8572753  65.5138903  21.3290113  24.0582753  65.5438903
  21.6460113  25.3612753  65.2588903  21.1310113  24.8132753  65.4808903
  21.0380113  24.3062753  61.7248903  21.3690113  23.6622753  62.2108903
  21.2780113  24.0952753  60.9138903  21.1220113  24.1802753  61.6768903
  23.0060113  18.4372753  73.0638903  22.1580113  18.3382753  72.8858903
  23.0350113  19.1822753  73.5178903  22.8850113  18.5332753  73.1048903
  17.3740113  13.9702753  62.1698903  17.0780113  14.4712753  61.5198903
  18.2410113  14.0482753  62.1128903  17.4580113  14.0562753  62.0658903
  27.5640113  11.3972753  72.1778903  27.4060113  12.1662753  71.7958903
  26.7920113  11.1772753  72.5218903  27.4260113  11.4782753  72.1728903
  20.3530113  13.1122753  64.3928903  20.4260113  13.9722753  64.5218903
  20.3150113  13.0372753  63.5248903  20.3580113  13.2282753  64.2838903
  25.0260113  16.0382753  56.6918903  24.5760113  16.7192753  56.9988903
  25.1400113  15.5342753  57.3948903  24.9770113  16.0642753  56.8408903
  13.2320113  18.5372753  65.8938903  12.9760113  19.3682753  65.8188903
  12.5680113  18.1542753  66.3108903  13.0960113  18.6032753  65.9448903
  13.1420113  28.2472753  63.7938903  12.5500113  28.8052753  63.4808903
  13.5680113  27.9782753  63.0818903  13.1180113  28.2892753  63.6428903
  18.9820113  26.0912753  61.2738903  18.4030113  25.8162753  61.8658903
  19.6060113  25.4822753  61.2988903  18.9890113  25.9612753  61.3648903
  25.1250113  28.3792753  58.7958903  25.8520113  28.8512753  58.8978903
  25.3540113  27.5852753  59.0758903  25.2670113  28.3322753  58.8528903
  23.2930113  28.7712753  60.7858903  23.5070113  29.2982753  61.4478903
  24.0600113  28.5972753  60.4068903  23.4380113  28.8232753  60.8278903
  16.2610113  13.3542753  66.3848903  15.7400113  12.7262753  66.0768903
  16.8520113  12.9172753  66.8558903  16.2720113  13.1962753  66.4088903
  19.5670113  15.4872753  75.6828903  19.6840113  15.0332753  74.9468903
  19.8550113  16.2852753  75.4798903  19.6270113  15.5382753  75.5438903
  14.6870113  26.9172753  61.7248903  15.3430113  26.3422753  61.7398903
  15.0760113  27.6662753  61.5038903  14.8420113  26.9422753  61.6948903
  30.4200113  16.0112753  62.9868903  30.0740113  16.6892753  63.4128903
  29.7840113  15.4132753  63.0028903  30.2750113  16.0232753  63.0518903
  25.7320113  28.7812753  69.0908903  26.4760113  29.2372753  69.0808903
  25.6110113  28.5672753  68.2538903  25.8240113  28.8172753  68.9658903
  15.3000113  15.0842753  74.6668903  14.5220113  14.6942753  74.5948903
  15.7910113  14.6722753  74.0758903  15.2570113  14.9652753  74.5688903
  15.5050113  25.4042753  65.2248903  15.9280113  25.0482753  64.5508903
  15.8290113  24.9822753  65.9168903  15.6150113  25.2892753  65.2278903
  18.7360113  28.2562753  64.5208903  19.5800113  28.3602753  64.3258903
  18.4390113  29.0742753  64.5888903  18.8170113  28.3922753  64.5018903
  21.9490113  12.7272753  73.8348903  22.1270113  11.9182753  73.5598903
  21.8060113  13.1682753  73.0958903  21.9540113  12.6732753  73.6848903
  22.5430113  17.6532753  62.6078903  22.8300113  17.4212753  61.8178903
  23.2750113  17.7322753  63.0768903  22.6930113  17.6302753  62.5608903
  23.2650113  17.9922753  57.7288903  23.5460113  18.7802753  57.9778903
  22.4890113  18.1572753  57.3658903  23.1920113  18.1332753  57.7118903
  27.3060113  29.9662753  59.1958903  27.9710113  29.8182753  58.6508903
  27.6660113  29.8832753  59.9858903  27.4580113  29.9322753  59.2318903
  17.7340113  29.4752753  70.2608903  18.0260113  29.4082753  71.0808903
  17.1080113  28.8702753  70.2158903  17.6850113  29.3762753  70.3758903
  30.0950113  14.3342753  68.3558903  30.8520113  14.4062753  67.9278903
  30.1580113  13.5612753  68.7548903  30.2160113  14.2312753  68.3508903
  12.6480113  15.6322753  72.2528903  12.6440113  16.2192753  72.8988903
  13.2420113  15.9442753  71.6958903  12.7350113  15.7652753  72.2658903
  24.9860113  25.9662753  72.7948903  24.9520113  26.3482753  73.5788903
  25.8400113  25.9242753  72.6238903  25.1070113  26.0162753  72.8858903
  22.1240113  26.1632753  57.5448903  21.9430113  26.7082753  58.2018903
  22.8900113  26.4532753  57.2438903  22.2100113  26.2872753  57.5978903
  25.6310113  14.0592753  58.5988903  26.1710113  13.3772753  58.6748903
  25.6930113  14.4572753  59.3728903  25.7200113  14.0172753  58.7248903
  13.5850113  15.2272753  61.1678903  13.4710113  14.3632753  61.1988903
  13.1100113  15.5212753  61.8378903  13.4980113  15.1432753  61.2708903
  15.7270113  27.6372753  69.3828903  15.0290113  27.1292753  69.5088903
  15.9870113  27.4322753  68.5748903  15.6620113  27.5322753  69.2818903
  22.8890113  16.4352753  59.9128903  22.3810113  15.7732753  59.6588903
  22.9410113  16.9392753  59.2028903  22.8220113  16.4122753  59.7708903
  23.4380113  29.1302753  70.2928903  24.2060113  29.0502753  69.8868903
  22.8550113  29.0092753  69.6548903  23.4650113  29.1002753  70.1388903
  22.8890113  13.3762753  59.8038903  22.4340113  12.9742753  59.1778903
  23.6620113  13.5312753  59.4288903  22.9360113  13.3402753  59.6558903
  29.7150113  29.7332753  63.1938903  29.2600113  30.4502753  63.3948903
  29.1010113  29.1622753  62.9518903  29.5570113  29.7552753  63.1878903
  21.4870113  15.7432753  64.3258903  21.5610113  16.3112753  63.6678903
  21.6080113  16.2352753  65.0358903  21.5150113  15.9002753  64.3338903
  26.7120113  25.5782753  62.7378903  27.4130113  25.0962753  62.9268903
  26.0520113  25.0092753  62.7828903  26.7180113  25.4232753  62.7718903
  17.0880113  26.4882753  71.9498903  17.9290113  26.5512753  71.7278903
  17.0510113  26.8852753  72.7258903  17.2070113  26.5562753  72.0318903
  16.0950113  11.5662753  62.6738903  16.6310113  12.2542753  62.6638903
  16.0980113  11.2922753  61.8458903  16.1740113  11.6272753  62.5498903
  19.0510113  21.9992753  66.6988903  19.2230113  21.7892753  67.5278903
  18.3960113  21.4652753  66.4828903  18.9800113  21.8892753  66.7898903
  25.2790113  15.9132753  70.2138903  25.1840113  16.2322753  71.0198903
  24.6860113  15.2742753  70.1758903  25.1770113  15.8652753  70.3278903
  19.8010113  21.9372753  69.2888903  19.8540113  22.7842753  69.4908903
  19.5160113  21.5672753  70.0258903  19.7670113  22.0072753  69.4268903
  25.9780113  22.6322753  68.4188903  25.4640113  22.2202753  68.9898903
  25.8520113  23.4762753  68.5998903  25.8840113  22.6962753  68.5298903
  26.5350113  11.8572753  63.0498903  26.5840113  11.5392753  63.8608903
  26.8580113  11.2132753  62.5568903  26.5900113  11.7152753  63.0968903
  12.6220113  26.3082753  75.4998903  13.3780113  26.6572753  75.7578903
  12.7990113  25.4552753  75.4428903  12.7600113  26.2332753  75.5298903
  28.9990113  16.0932753  71.3578903  29.7710113  15.8682753  71.6948903
  28.5240113  16.3102753  72.0578903  29.0430113  16.0922753  71.5108903
  16.5430113  15.3762753  64.3278903  16.8150113  14.9462753  63.6198903
  16.3670113  14.7402753  64.8988903  16.5570113  15.2192753  64.3078903
  29.2310113  23.0712753  58.5458903  29.3500113  22.7842753  59.3608903
  30.0380113  23.0922753  58.2158903  29.3670113  23.0322753  58.6178903
  16.3670113  22.8032753  63.8768903  17.2180113  22.7232753  63.7038903
  16.0100113  22.1212753  63.4648903  16.4400113  22.6902753  63.7898903
  15.1340113  29.5282753  65.1138903  14.4610113  29.0302753  64.8688903
  15.5370113  29.7132753  64.3628903  15.0940113  29.4822753  64.9668903
  14.6840113  16.4782753  67.4098903  15.5270113  16.6982753  67.3668903
  14.2950113  17.0512753  66.8788903  14.7510113  16.5952753  67.3248903
  31.4650113  27.5802753  72.7998903  30.7830113  27.8902753  72.3528903
  31.0960113  27.1222753  73.4448903  31.3090113  27.5582753  72.8288903
  27.1260113  19.6082753  58.1308903  26.9060113  20.3392753  57.7088903
  26.6780113  19.6592753  58.8778903  27.0270113  19.7232753  58.1788903
  18.7350113  22.8102753  62.1118903  19.4480113  23.3052753  62.2018903
  18.9570113  22.2432753  61.4858903  18.8730113  22.7992753  62.0328903
  31.3130113  14.4692753  57.5838903  30.6510113  13.9012753  57.6068903
  31.1200113  14.9812753  56.9038903  31.1870113  14.4612753  57.4868903
  12.8910113  24.4532753  65.4318903  12.2240113  24.9412753  65.7078903
  13.5710113  24.9982753  65.4608903  12.8930113  24.6052753  65.4768903
  20.5380113  18.1632753  75.5278903  20.0540113  18.7402753  75.9698903
  20.5100113  18.4582753  74.7068903  20.4620113  18.2922753  75.4718903
  31.6360113  18.8472753  70.1398903  31.8510113  18.0472753  69.8638903
  30.7860113  18.9072753  69.9508903  31.5420113  18.7382753  70.0708903
  12.9570113  21.1372753  60.5348903  12.7720113  20.2982753  60.6868903
  13.6160113  21.1012753  59.9648903  13.0270113  21.0082753  60.4728903
  29.3150113  14.0272753  59.8628903  30.0610113  13.6202753  60.0618903
  29.5780113  14.7422753  59.4378903  29.4640113  14.0732753  59.8298903
  23.2580113  26.5132753  64.4388903  22.7350113  27.1472753  64.1458903
  23.5680113  26.1492753  63.7098903  23.2260113  26.5532753  64.2878903
  13.1290113  25.3012753  60.1098903  13.6810113  25.8702753  60.4738903
  12.8970113  24.7862753  60.7748903  13.1760113  25.3092753  60.2618903
  17.3330113  24.3012753  67.1988903  17.8000113  24.5902753  67.8768903
  17.9050113  23.8232753  66.7448903  17.4870113  24.2732753  67.2318903
  25.7690113  16.3152753  64.9358903  26.1130113  16.4672753  65.7228903
  25.3160113  15.5772753  65.0488903  25.7530113  16.2282753  65.0688903
  12.9590113  23.7502753  57.7378903  13.7150113  23.3182753  57.7958903
  12.9740113  24.2822753  58.4288903  13.0730113  23.7652753  57.8488903
  13.8990113  21.9712753  65.7428903  14.3300113  21.8422753  64.9958903
  13.6940113  22.8192753  65.7168903  13.9320113  22.0772753  65.6288903
  20.2450113  15.5352753  59.3928903  20.2430113  15.4182753  58.5278903
  20.0640113  16.3832753  59.4848903  20.2180113  15.6432753  59.2788903
  29.2990113  27.9622753  70.8898903  28.6280113  28.4762753  71.1078903
  29.3620113  28.0622753  70.0258903  29.2090113  28.0532753  70.7948903
  17.9830113  25.4872753  64.0248903  18.1090113  26.3302753  64.2118903
  18.6510113  25.0882753  64.4208903  18.1010113  25.5532753  64.1108903
  16.1130113  18.9702753  73.8868903  15.5770113  18.4642753  74.3548903
  16.1330113  18.5802753  73.1068903  16.0360113  18.8372753  73.8408903
  16.5980113  18.3672753  59.0268903  16.4700113  17.9192753  59.7648903
  16.0160113  18.0252753  58.4748903  16.4930113  18.2502753  59.0548903
  16.7650113  20.1972753  65.6258903  15.9840113  20.1382753  65.2428903
  16.8370113  19.4452753  66.0628903  16.6600113  20.0782753  65.6338903
  17.1950113  19.9342753  69.0938903  17.2200113  19.2592753  68.5428903
  16.5490113  20.4302753  68.7818903  17.1040113  19.9072753  68.9668903
  27.0900113  17.6472753  67.4898903  26.4280113  17.9752753  67.9528903
  27.2770113  18.2812753  66.9208903  27.0200113  17.7892753  67.4738903
  21.2950113  28.7112753  68.4858903  21.0180113  28.0702753  67.9628903
  21.0870113  29.4372753  68.0478903  21.2240113  28.7242753  68.3438903
  23.7350113  13.5532753  70.9188903  23.8840113  12.7282753  70.6758903
  24.1140113  13.6082753  71.7028903  23.8130113  13.4392753  70.9988903
  25.2830113  15.6162753  61.0008903  25.7730113  16.3332753  60.9238903
  24.4930113  15.8772753  60.7378903  25.2390113  15.7602753  60.9508903
  14.9940113  21.2892753  74.6528903  14.9570113  21.7902753  73.9388903
  15.3250113  20.5372753  74.3578903  15.0370113  21.2512753  74.5038903
  26.5970113  23.4942753  72.9108903  27.0810113  24.2122753  73.0088903
  26.9910113  23.0672753  72.2598903  26.7270113  23.5372753  72.8288903
  20.8930113  26.3392753  74.0878903  21.2470113  26.1612753  74.8648903
  20.4570113  25.6102753  73.8888903  20.8810113  26.2052753  74.1738903
  21.8650113  17.0862753  66.7258903  22.3450113  17.7852753  66.9338903
  22.2380113  16.4392753  67.1768903  21.9910113  17.0942753  66.8228903
  24.0540113  20.2552753  58.9998903  24.0460113  20.9772753  58.5098903
  23.4150113  20.3902753  59.5768903  23.9590113  20.3822753  59.0128903
  25.0710113  27.1912753  66.8248903  24.4680113  26.8952753  66.2678903
  25.6160113  27.6432753  66.3158903  25.0620113  27.2142753  66.6668903
  25.0840113  24.0422753  66.2248903  24.2870113  24.2662753  66.4988903
  25.3420113  23.4482753  66.8098903  25.0040113  23.9872753  66.3518903
  18.9760113  28.8542753  60.6728903  18.8290113  28.0782753  61.0438903
  19.6650113  28.7072753  60.1578903  19.0560113  28.7172753  60.6518903
  18.6470113  12.5972753  58.6608903  18.7440113  12.4902753  59.5218903
  17.9390113  13.1032753  58.5958903  18.5570113  12.6562753  58.7788903
  21.2680113  28.3702753  59.0748903  21.8900113  28.5332753  59.6648903
  21.3040113  29.0612753  58.5428903  21.3650113  28.4962753  59.0838903
  28.3440113  22.0402753  71.0708903  28.3990113  22.1652753  70.2088903
  29.0970113  22.3602753  71.3728903  28.4630113  22.1052753  70.9878903
  24.5350113  27.3892753  75.3478903  24.6990113  27.6722753  76.1568903
  24.7980113  28.0502753  74.8428903  24.5980113  27.5292753  75.3928903
  29.3760113  12.3382753  74.0578903  28.7390113  11.9382753  73.6158903
  29.4020113  11.9072753  74.8158903  29.2860113  12.2162753  74.1038903
  15.7690113  20.9042753  59.9038903  16.0930113  20.1252753  59.6818903
  16.4150113  21.2722753  60.3588903  15.9120113  20.8432753  59.9378903
  24.0750113  21.8462753  70.6708903  23.9200113  22.4562753  71.2748903
  24.6090113  21.2882753  71.0768903  24.1310113  21.8542753  70.8198903
  12.7660113  12.5652753  60.8718903  12.8950113  11.8572753  60.3798903
  12.3990113  12.2472753  61.5968903  12.7310113  12.4132753  60.9068903
  22.4590113  20.2462753  61.3288903  22.5180113  20.8962753  61.9078903
  22.2700113  19.5502753  61.8198903  22.4400113  20.2392753  61.4868903
  27.6850113  24.5752753  67.1978903  27.2060113  24.8732753  66.5318903
  27.3290113  23.7992753  67.3758903  27.5620113  24.5042753  67.1258903
  16.9550113  14.7632753  57.8408903  16.4440113  14.8162753  57.1348903
  17.7390113  15.0032753  57.5448903  16.9950113  14.8062753  57.6928903
  21.6820113  22.2932753  65.7598903  20.8350113  22.0992753  65.8408903
  22.0060113  22.1282753  66.5528903  21.6040113  22.2402753  65.8888903
  18.4340113  29.0232753  56.6458903  18.8730113  28.3262753  56.9338903
  18.6410113  29.6472753  57.2188903  18.5300113  29.0122753  56.7728903
  15.5300113  21.9862753  68.0758903  16.2520113  22.4742753  68.0388903
  15.2600113  21.9562753  67.2468903  15.5970113  22.0542753  67.9478903
  18.7600113  17.1572753  64.8108903  19.6060113  16.9672753  64.9088903
  18.3900113  16.3802753  64.6728903  18.8300113  17.0142753  64.8048903
  31.3770113  28.7412753  59.1378903  32.0710113  28.2742753  58.8898903
  30.8380113  28.1432753  59.4748903  31.4000113  28.5832753  59.1508903
  13.5810113  18.4952753  61.4658903  14.0700113  18.2032753  62.1268903
  13.7100113  17.9022753  60.8388903  13.6720113  18.3642753  61.4708903
  28.6160113  21.5172753  68.3168903  28.6090113  20.7412753  68.7148903
  27.7750113  21.7512753  68.3098903  28.4910113  21.4372753  68.3748903
  18.1060113  19.9292753  56.9518903  17.4960113  19.5242753  57.4258903
  17.7200113  20.0472753  56.1788903  17.9590113  19.8862753  56.9078903
  14.9250113  23.0382753  72.3538903  14.5040113  22.5202753  71.7928903
  14.5730113  23.8242753  72.2108903  14.8110113  23.0782753  72.2498903
  29.8720113  21.5882753  65.7538903  29.5860113  21.9892753  66.4738903
  30.7320113  21.5262753  65.8808903  29.9570113  21.6382753  65.8788903
  19.5610113  18.3902753  59.6618903  19.8330113  19.2162753  59.7288903
  18.6980113  18.4652753  59.5658903  19.4740113  18.5232753  59.6568903
  27.5340113  15.5122753  74.2938903  27.0090113  15.9712753  74.8178903
  27.1730113  14.7172753  74.2878903  27.4030113  15.4622753  74.3698903
  13.0410113  14.3602753  66.1978903  13.0850113  14.7042753  65.3968903
  13.7960113  14.5972753  66.5648903  13.1590113  14.4462753  66.1338903
  31.0030113  27.2212753  66.2828903  31.2930113  27.4782753  65.5018903
  31.6980113  27.3172753  66.8018903  31.1490113  27.2732753  66.2438903
  26.0260113  19.0812753  74.3698903  26.0990113  19.1852753  75.2328903
  25.3920113  19.6392753  74.1488903  25.9430113  19.1792753  74.4648903
  28.2940113  19.4002753  72.7348903  28.6130113  20.1862753  72.9378903
  27.9240113  19.1302753  73.4778903  28.2870113  19.4762753  72.8748903
  27.6080113  25.8242753  58.2648903  27.9420113  25.0182753  58.2998903
  26.8530113  25.7522753  58.6948903  27.5460113  25.6942753  58.3338903
  28.0900113  17.6582753  63.9238903  27.3450113  17.3352753  64.2418903
  28.0920113  18.4842753  64.2038903  27.9800113  17.7322753  64.0118903
  30.9920113  19.9422753  75.4698903  30.9400113  19.6012753  74.6688903
  31.7290113  20.4092753  75.4478903  31.0930113  19.9612753  75.3478903
  30.5300113  23.6182753  71.6758903  31.1580113  23.0692753  71.4198903
  30.4690113  24.1832753  71.0138903  30.6140113  23.6212753  71.5398903
  24.9820113  23.6992753  57.6678903  25.6660113  23.1852753  57.4988903
  24.5650113  23.7452753  56.9028903  25.0210113  23.6302753  57.5298903
  19.6640113  24.8492753  68.9718903  19.3660113  25.4412753  69.5388903
  19.7190113  25.2912753  68.2228903  19.6280113  25.0022753  68.9448903
  17.6430113  23.7992753  72.3698903  16.8370113  23.5092753  72.5368903
  17.5540113  24.6672753  72.3758903  17.5110113  23.8842753  72.3948903
  27.0020113  13.9882753  71.3848903  27.7460113  14.4402753  71.3218903
  26.4360113  14.4582753  70.9158903  27.0290113  14.1252753  71.3068903
  22.1800113  21.2722753  68.4628903  22.6560113  21.6462753  69.0908903
  21.3570113  21.4062753  68.7218903  22.1290113  21.3472753  68.5938903
  18.8900113  16.8752753  71.2038903  19.0510113  16.1312753  71.6308903
  18.8450113  16.6262753  70.3688903  18.9070113  16.7282753  71.1438903
  21.4440113  28.6652753  63.6908903  21.9900113  29.3442753  63.7448903
  21.0940113  28.7472753  62.8958903  21.4730113  28.7782753  63.5808903
  28.2870113  11.9682753  69.0548903  28.0070113  12.7932753  69.0108903
  29.0030113  12.0212753  69.5508903  28.3520113  12.0982753  69.1218903
  20.6420113  12.6832753  71.0838903  21.3470113  13.0032753  70.6818903
  20.8830113  11.8762753  71.3108903  20.7810113  12.6112753  71.0578903
  19.6270113  26.8932753  67.0798903  19.0030113  27.4752753  66.8978903
  19.8750113  26.6072753  66.2938903  19.5710113  26.9372753  66.9368903
  23.9360113  23.5272753  74.0688903  24.6930113  23.8132753  73.7428903
  23.3890113  23.5792753  73.3908903  23.9670113  23.5772753  73.9198903
  27.8450113  26.0772753  72.5728903  28.1910113  26.3472753  73.3268903
  28.1390113  26.6592753  71.9928903  27.9400113  26.2032753  72.5988903
  29.7080113  18.2232753  57.9118903  30.0860113  18.9002753  57.5118903
  28.8660113  18.4472753  57.9428903  29.6390113  18.3562753  57.8568903
  21.2210113  21.6692753  56.9948903  20.4160113  21.4922753  56.7098903
  21.1880113  22.5202753  57.1868903  21.0970113  21.7682753  56.9818903
  17.1510113  17.7362753  67.1448903  17.5910113  17.6332753  66.3988903
  17.6960113  17.4232753  67.7498903  17.2960113  17.6752753  67.1238903
  25.1670113  16.8382753  72.7368903  24.5190113  17.3082753  73.0848903
  25.7320113  16.7492753  73.3958903  25.1550113  16.8942753  72.8858903
  24.8550113  18.3752753  69.0348903  25.1570113  18.7952753  69.7378903
  24.8910113  17.5352753  69.2668903  24.9050113  18.3132753  69.1728903
  22.2800113  28.5422753  72.9598903  22.7580113  27.9422753  72.5438903
  21.9290113  28.0992753  73.6248903  22.2990113  28.3882753  72.9968903
  27.4030113  17.8222753  61.2868903  27.6100113  17.6212753  62.1108903
  28.1590113  18.0902753  60.9448903  27.5450113  17.8322753  61.3578903
  20.6980113  12.7212753  67.1918903  19.8720113  12.5722753  67.4288903
  20.6580113  12.7562753  66.3208903  20.5700113  12.7042753  67.0978903
  28.4250113  13.9052753  62.7608903  27.7110113  13.4342753  62.9318903
  28.2630113  14.2462753  61.9748903  28.2960113  13.8862753  62.6698903
  28.8680113  21.8492753  61.1408903  29.3440113  21.1202753  61.0928903
  28.0470113  21.5632753  61.0648903  28.8170113  21.6992753  61.1218903
  22.3390113  23.7612753  71.9798903  21.5440113  23.6972753  72.3308903
  22.4100113  24.6082753  71.7848903  22.2320113  23.8762753  72.0028903
  13.2630113  13.1192753  73.2268903  13.1230113  13.9142753  72.8958903
  12.4770113  12.8762753  73.5158903  13.1260113  13.2012753  73.2208903
  18.1690113  29.9682753  67.2968903  18.1800113  30.0272753  68.1668903
  17.7440113  29.2212753  67.1468903  18.1080113  29.8662753  67.4028903
  16.3270113  15.8632753  60.4518903  16.4530113  15.5342753  59.6538903
  15.5150113  15.6142753  60.6508903  16.2260113  15.7782753  60.3638903
  25.0840113  23.0162753  63.4958903  25.1600113  23.3572753  64.2948903
  25.2530113  22.1692753  63.6168903  25.1200113  22.9412753  63.6318903
  22.6060113  22.2902753  63.0608903  22.3080113  21.9752753  63.8178903
  23.3010113  22.7632753  63.2958903  22.6650113  22.3132753  63.2078903
  22.8280113  26.4082753  71.0878903  23.5150113  26.2942753  71.6128903
  22.9620113  27.1992753  70.7438903  22.9490113  26.5082753  71.1148903
  31.0040113  19.0172753  72.8988903  30.1490113  18.8952753  73.0248903
  31.1570113  18.6222753  72.1358903  30.9000113  18.9402753  72.8048903
  25.5170113  19.6822753  71.4748903  25.2620113  18.9632753  71.8968903
  26.3380113  19.7982753  71.7448903  25.6010113  19.5932753  71.5768903
  14.9330113  29.4662753  72.7388903  14.2790113  28.8972753  72.8368903
  14.5580113  30.2392753  72.8898903  14.7810113  29.4962753  72.7758903
  23.4510113  20.8722753  74.6618903  23.7740113  21.5582753  74.2298903
  22.7470113  21.1952753  75.0638903  23.3940113  21.0212753  74.6568903
  26.5350113  29.2462753  65.5908903  26.0840113  29.8892753  65.9698903
  27.2430113  29.1672753  66.0958903  26.5730113  29.3292753  65.7218903
  23.2360113  24.3362753  68.5208903  22.5420113  24.7382753  68.8638903
  23.9130113  24.7692753  68.8598903  23.2330113  24.4592753  68.6218903
  28.6130113  26.9292753  75.1008903  29.3890113  26.5392753  75.1838903
  28.1440113  26.5932753  75.7558903  28.6580113  26.8222753  75.2098903
  16.3040113  17.8742753  70.8678903  16.6790113  18.4932753  70.3808903
  16.9780113  17.4002753  71.1528903  16.4590113  17.8962753  70.8378903
  14.0790113  16.3222753  70.1428903  14.1560113  16.1532753  69.2898903
  14.8250113  16.7282753  70.3398903  14.2000113  16.3572753  70.0458903
  29.6380113  18.9622753  60.5828903  29.7410113  18.9042753  59.7188903
  30.3790113  18.6302753  60.9008903  29.7630113  18.9052753  60.5018903
  16.6330113  13.7322753  72.5538903  16.5520113  12.8882753  72.7598903
  16.3190113  13.7762753  71.7408903  16.5750113  13.6142753  72.4638903
  23.5580113  25.9272753  61.6898903  23.3530113  26.7602753  61.5308903
  22.7830113  25.5452753  61.8118903  23.4130113  25.9942753  61.6848903
  28.7400113  19.1082753  69.9388903  28.7380113  18.2452753  70.0628903
  28.8070113  19.4322753  70.7458903  28.7500113  19.0282753  70.0758903
  13.4760113  21.5482753  70.3668903  13.7960113  21.7672753  69.5858903
  13.3760113  20.6832753  70.3118903  13.5080113  21.4532753  70.2438903
  14.9320113  17.4842753  56.9848903  14.2600113  17.4982753  57.5408903
  15.0270113  16.6362753  56.8008903  14.8470113  17.3612753  57.0398903
  24.6190113  13.9082753  73.7208903  24.7110113  14.6202753  74.2148903
  23.9820113  13.4632753  74.1178903  24.5380113  13.9472753  73.8528903
  23.6130113  14.0982753  64.5748903  22.9130113  14.6162753  64.5188903
  23.6510113  13.7182753  63.7908903  23.5150113  14.1192753  64.4508903
  18.9200113  26.1892753  58.0988903  19.3610113  26.2692753  58.8468903
  18.1150113  25.9732753  58.3568903  18.8660113  26.1692753  58.2478903
  27.2110113  14.6142753  67.3748903  28.0660113  14.7132753  67.5198903
  26.8420113  15.1672753  67.9398903  27.2830113  14.7112753  67.4798903
  18.2390113  20.8402753  71.7518903  17.8430113  21.6142753  71.8268903
  17.8330113  20.4672753  71.0758903  18.1210113  20.8992753  71.6628903
  27.5150113  19.8942753  65.8658903  28.1810113  20.4352753  66.0258903
  27.1700113  20.2052753  65.1268903  27.5620113  20.0202753  65.7808903
  27.8280113  27.9602753  61.6728903  27.6540113  27.3062753  62.2228903
  28.5410113  27.6892753  61.2498903  27.9080113  27.8232753  61.6918903
  16.2490113  25.2592753  58.6998903  16.0050113  24.9522753  59.4798903
  16.2160113  24.5562753  58.1838903  16.2080113  25.1102753  58.7388903
  19.0680113  23.5042753  57.4428903  18.2500113  23.2362753  57.5828903
  19.0400113  24.3562753  57.6278903  18.9430113  23.5912753  57.4908903
  18.6680113  13.8172753  69.2018903  17.8040113  13.9012753  69.2818903
  18.8880113  13.3032753  69.8708903  18.5730113  13.7542753  69.3128903
  30.6860113  12.4522753  70.5308903  30.6340113  12.4082753  71.4008903
  31.3730113  11.9492753  70.3408903  30.7800113  12.3722753  70.6308903
  22.7710113  14.5652753  67.5758903  22.0340113  14.1112753  67.6888903
  23.3420113  14.1632753  68.0988903  22.7460113  14.4382753  67.6698903
  25.5030113  25.4132753  69.3638903  25.7090113  25.7142753  70.1558903
  25.4420113  26.1352753  68.8788903  25.5240113  25.5642753  69.4088903
  25.0370113  29.6272753  73.6098903  24.2840113  29.6092753  73.1688903
  25.2050113  30.4792753  73.6938903  24.9510113  29.7502753  73.5568903
  20.2740113  18.8942753  72.7798903  19.9520113  18.3182753  72.2098903
  19.9150113  19.6492753  72.5338903  20.1740113  18.9202753  72.6598903
  21.0700113  12.1462753  57.4068903  21.1480113  12.3932753  56.5738903
  20.3270113  12.5232753  57.6648903  20.9720113  12.2382753  57.3218903
  30.3150113  24.0522753  68.8218903  30.2830113  23.1902753  68.6868903
  29.6220113  24.3542753  68.3878903  30.2080113  23.9692753  68.7378903
  18.7090113  29.2502753  73.0278903  18.7500113  29.3762753  73.8908903
  19.3600113  28.6902753  72.8718903  18.8110113  29.1862753  73.1328903
  28.4200113  27.3122753  67.6188903  28.9470113  27.2292753  66.9278903
  28.0290113  26.5342753  67.6728903  28.4400113  27.1852753  67.5248903
  15.8880113  13.9002753  69.8498903  15.5450113  13.1332753  69.6158903
  15.1930113  14.4242753  69.9138903  15.7350113  13.8642753  69.8248903
  24.9340113  12.7562753  66.8268903  25.6040113  13.3002753  66.9538903
  24.4310113  13.1802753  66.2538903  24.9590113  12.8992753  66.7608903
  16.3020113  27.6332753  74.3878903  16.8970113  28.0642753  74.8598903
  15.9380113  28.2572753  73.8988903  16.3360113  27.7892753  74.3848903
  24.2930113  18.5642753  64.3198903  24.8440113  17.9572753  64.6198903
  23.8680113  18.8272753  65.0348903  24.3120113  18.5132753  64.4688903
  14.5410113  17.2142753  63.8058903  14.1730113  17.5162753  64.5368903
  15.0750113  16.5852753  64.0898903  14.5650113  17.1662753  63.9558903
  14.2290113  25.6222753  71.3168903  13.6550113  26.0382753  71.8258903
  14.9620113  26.0872753  71.4118903  14.2530113  25.7522753  71.4058903
  26.2630113  20.3952753  60.8818903  26.3310113  19.5452753  61.0628903
  25.4400113  20.4812753  60.6038903  26.1510113  20.2822753  60.8678903
  16.0150113  28.8892753  60.0918903  15.8700113  29.0452753  59.2458903
  16.8810113  28.9682753  60.1698903  16.1220113  28.9242753  59.9788903
  20.1820113  21.2862753  59.8198903  20.2820113  21.4252753  58.9648903
  21.0000113  21.2262753  60.1158903  20.3170113  21.2972753  59.7368903
  29.3420113  29.3502753  57.2998903  29.9790113  29.2162753  57.8808903
  29.0010113  28.5562753  57.1828903  29.3860113  29.2132753  57.3678903
  29.5370113  21.7682753  74.0328903  30.1710113  21.5982753  74.6068903
  29.9540113  22.1712753  73.3808903  29.6920113  21.8032753  74.0218903
  25.4170113  25.6152753  59.6218903  25.1660113  25.4872753  60.4478903
  25.1000113  24.9202753  59.2008903  25.3330113  25.4942753  59.6818903
  30.1620113  16.3322753  74.7708903  29.9660113  16.9762753  75.3258903
  29.4400113  15.8422753  74.7628903  30.0270113  16.3552753  74.8518903
  30.0610113  17.2732753  67.7418903  29.2280113  17.5232753  67.6698903
  30.0050113  16.4332753  67.9708903  29.9300113  17.1862753  67.7648903
  19.3210113  14.2612753  72.9358903  19.5550113  13.6852753  72.3228903
  18.4790113  14.0802753  73.0768903  19.2310113  14.1492753  72.8658903
  26.9480113  21.8792753  75.3878903  27.8190113  21.8432753  75.3518903
  26.7290113  22.2992753  74.6558903  27.0450113  21.9352753  75.2748903
  16.7020113  27.7042753  66.5688903  16.6230113  26.8942753  66.2528903
  16.2580113  28.1912753  65.9968903  16.6250113  27.6562753  66.4378903
  22.3030113  23.8232753  59.0518903  23.0200113  23.4762753  58.6958903
  22.2690113  24.6232753  58.7038903  22.4040113  23.8902753  58.9478903
  14.2740113  29.9482753  70.1498903  14.7670113  29.8922753  70.8678903
  14.4620113  29.2152753  69.7148903  14.3750113  29.8312753  70.1918903
  23.7120113  12.4642753  43.2906493  23.4670113  12.9522753  42.6106493
  24.5750113  12.3912753  43.1906493  23.8030113  12.5252753  43.1756493
  23.5210113  19.3802753  47.9616493  22.9970113  19.9762753  48.3246493
  23.9180113  19.0122753  48.6456493  23.5020113  19.4142753  48.1166493
  13.3900113  23.5202753  43.4176493  12.9490113  23.6382753  44.1606493
  13.1070113  22.7452753  43.1326493  13.2830113  23.4232753  43.4856493
  13.1330113  17.3122753  39.9246493  12.3550113  17.4742753  39.5646493
  13.1720113  16.4412753  39.9466493  13.0240113  17.2072753  39.8746493
  16.2720113  22.5752753  38.5966493  15.8800113  22.2042753  37.9106493
  16.1920113  21.9772753  39.2256493  16.2020113  22.4322753  38.5876493
  26.1920113  20.4472753  44.6376493  26.2720113  20.4512753  43.7686493
  25.6080113  19.8152753  44.7866493  26.1170113  20.3542753  44.5316493
  15.8990113  24.2162753  42.4966493  16.5070113  24.0462753  43.0996493
  15.1480113  24.0762753  42.9176493  15.8780113  24.1702753  42.6476493
  20.1810113  13.5512753  42.4456493  20.1110113  14.2282753  41.8996493
  20.9220113  13.1632753  42.1966493  20.2800113  13.5942753  42.3276493
  14.7900113  27.3072753  38.5736493  15.2570113  27.3912753  37.8416493
  15.2450113  26.7292753  39.0426493  14.9260113  27.2342753  38.5346493
  13.3300113  26.2552753  49.6726493  13.4590113  25.9752753  50.4886493
  12.7200113  25.7142753  49.3636493  13.2590113  26.1342753  49.7476493
  19.9040113  23.7802753  54.7396493  19.6680113  23.7772753  55.5796493
  19.1560113  23.6322753  54.3156493  19.7580113  23.7572753  54.8006493
  14.7760113  20.7762753  43.8746493  14.3140113  20.3842753  43.2476493
  15.4760113  20.2632753  43.9666493  14.8110113  20.6432753  43.7956493
  19.2840113  16.3862753  49.2216493  19.9620113  16.4042753  48.6726493
  19.2390113  15.5502753  49.4666493  19.3770113  16.2652753  49.1766493
  19.8860113  26.9722753  52.0026493  20.0240113  27.7322753  51.5956493
  20.6770113  26.6072753  52.0296493  20.0230113  27.0312753  51.9466493
  16.7770113  18.8762753  43.8976493  17.5940113  18.6892753  44.1406493
  16.3000113  18.2622753  44.2936493  16.8270113  18.7582753  43.9926493
  20.9810113  24.8572753  46.5076493  21.3290113  24.0582753  46.5376493
  21.6460113  25.3612753  46.2526493  21.1310113  24.8132753  46.4746493
  21.0380113  24.3062753  42.7186493  21.3690113  23.6622753  43.2046493
  21.2780113  24.0952753  41.9076493  21.1220113  24.1802753  42.6706493
  23.0060113  18.4372753  54.0576493  22.1580113  18.3382753  53.8796493
  23.0350113  19.1822753  54.5116493  22.8850113  18.5332753  54.0986493
  17.3740113  13.9702753  43.1636493  17.0780113  14.4712753  42.5136493
  18.2410113  14.0482753  43.1066493  17.4580113  14.0562753  43.0596493
  27.5640113  11.3972753  53.1716493  27.4060113  12.1662753  52.7896493
  26.7920113  11.1772753  53.5156493  27.4260113  11.4782753  53.1666493
  20.3530113  13.1122753  45.3866493  20.4260113  13.9722753  45.5156493
  20.3150113  13.0372753  44.5186493  20.3580113  13.2282753  45.2776493
  25.0260113  16.0382753  37.6856493  24.5760113  16.7192753  37.9926493
  25.1400113  15.5342753  38.3886493  24.9770113  16.0642753  37.8346493
  13.2320113  18.5372753  46.8876493  12.9760113  19.3682753  46.8126493
  12.5680113  18.1542753  47.3046493  13.0960113  18.6032753  46.9386493
  13.1420113  28.2472753  44.7876493  12.5500113  28.8052753  44.4746493
  13.5680113  27.9782753  44.0756493  13.1180113  28.2892753  44.6366493
  18.9820113  26.0912753  42.2676493  18.4030113  25.8162753  42.8596493
  19.6060113  25.4822753  42.2926493  18.9890113  25.9612753  42.3586493
  25.1250113  28.3792753  39.7896493  25.8520113  28.8512753  39.8916493
  25.3540113  27.5852753  40.0696493  25.2670113  28.3322753  39.8466493
  23.2930113  28.7712753  41.7796493  23.5070113  29.2982753  42.4416493
  24.0600113  28.5972753  41.4006493  23.4380113  28.8232753  41.8216493
  16.2610113  13.3542753  47.3786493  15.7400113  12.7262753  47.0706493
  16.8520113  12.9172753  47.8496493  16.2720113  13.1962753  47.4026493
  19.5670113  15.4872753  56.6766493  19.6840113  15.0332753  55.9406493
  19.8550113  16.2852753  56.4736493  19.6270113  15.5382753  56.5376493
  14.6870113  26.9172753  42.7186493  15.3430113  26.3422753  42.7336493
  15.0760113  27.6662753  42.4976493  14.8420113  26.9422753  42.6886493
  30.4200113  16.0112753  43.9806493  30.0740113  16.6892753  44.4066493
  29.7840113  15.4132753  43.9966493  30.2750113  16.0232753  44.0456493
  25.7320113  28.7812753  50.0846493  26.4760113  29.2372753  50.0746493
  25.6110113  28.5672753  49.2476493  25.8240113  28.8172753  49.9596493
  15.3000113  15.0842753  55.6606493  14.5220113  14.6942753  55.5886493
  15.7910113  14.6722753  55.0696493  15.2570113  14.9652753  55.5626493
  15.5050113  25.4042753  46.2186493  15.9280113  25.0482753  45.5446493
  15.8290113  24.9822753  46.9106493  15.6150113  25.2892753  46.2216493
  18.7360113  28.2562753  45.5146493  19.5800113  28.3602753  45.3196493
  18.4390113  29.0742753  45.5826493  18.8170113  28.3922753  45.4956493
  21.9490113  12.7272753  54.8286493  22.1270113  11.9182753  54.5536493
  21.8060113  13.1682753  54.0896493  21.9540113  12.6732753  54.6786493
  22.5430113  17.6532753  43.6016493  22.8300113  17.4212753  42.8116493
  23.2750113  17.7322753  44.0706493  22.6930113  17.6302753  43.5546493
  23.2650113  17.9922753  38.7226493  23.5460113  18.7802753  38.9716493
  22.4890113  18.1572753  38.3596493  23.1920113  18.1332753  38.7056493
  27.3060113  29.9662753  40.1896493  27.9710113  29.8182753  39.6446493
  27.6660113  29.8832753  40.9796493  27.4580113  29.9322753  40.2256493
  17.7340113  29.4752753  51.2546493  18.0260113  29.4082753  52.0746493
  17.1080113  28.8702753  51.2096493  17.6850113  29.3762753  51.3696493
  30.0950113  14.3342753  49.3496493  30.8520113  14.4062753  48.9216493
  30.1580113  13.5612753  49.7486493  30.2160113  14.2312753  49.3446493
  12.6480113  15.6322753  53.2466493  12.6440113  16.2192753  53.8926493
  13.2420113  15.9442753  52.6896493  12.7350113  15.7652753  53.2596493
  24.9860113  25.9662753  53.7886493  24.9520113  26.3482753  54.5726493
  25.8400113  25.9242753  53.6176493  25.1070113  26.0162753  53.8796493
  22.1240113  26.1632753  38.5386493  21.9430113  26.7082753  39.1956493
  22.8900113  26.4532753  38.2376493  22.2100113  26.2872753  38.5916493
  25.6310113  14.0592753  39.5926493  26.1710113  13.3772753  39.6686493
  25.6930113  14.4572753  40.3666493  25.7200113  14.0172753  39.7186493
  13.5850113  15.2272753  42.1616493  13.4710113  14.3632753  42.1926493
  13.1100113  15.5212753  42.8316493  13.4980113  15.1432753  42.2646493
  15.7270113  27.6372753  50.3766493  15.0290113  27.1292753  50.5026493
  15.9870113  27.4322753  49.5686493  15.6620113  27.5322753  50.2756493
  22.8890113  16.4352753  40.9066493  22.3810113  15.7732753  40.6526493
  22.9410113  16.9392753  40.1966493  22.8220113  16.4122753  40.7646493
  23.4380113  29.1302753  51.2866493  24.2060113  29.0502753  50.8806493
  22.8550113  29.0092753  50.6486493  23.4650113  29.1002753  51.1326493
  22.8890113  13.3762753  40.7976493  22.4340113  12.9742753  40.1716493
  23.6620113  13.5312753  40.4226493  22.9360113  13.3402753  40.6496493
  21.4870113  15.7432753  45.3196493  21.5610113  16.3112753  44.6616493
  21.6080113  16.2352753  46.0296493  21.5150113  15.9002753  45.3276493
  26.7120113  25.5782753  43.7316493  27.4130113  25.0962753  43.9206493
  26.0520113  25.0092753  43.7766493  26.7180113  25.4232753  43.7656493
  17.0880113  26.4882753  52.9436493  17.9290113  26.5512753  52.7216493
  17.0510113  26.8852753  53.7196493  17.2070113  26.5562753  53.0256493
  16.0950113  11.5662753  43.6676493  16.6310113  12.2542753  43.6576493
  16.0980113  11.2922753  42.8396493  16.1740113  11.6272753  43.5436493
  19.0510113  21.9992753  47.6926493  19.2230113  21.7892753  48.5216493
  18.3960113  21.4652753  47.4766493  18.9800113  21.8892753  47.7836493
  25.2790113  15.9132753  51.2076493  25.1840113  16.2322753  52.0136493
  24.6860113  15.2742753  51.1696493  25.1770113  15.8652753  51.3216493
  19.8010113  21.9372753  50.2826493  19.8540113  22.7842753  50.4846493
  19.5160113  21.5672753  51.0196493  19.7670113  22.0072753  50.4206493
  25.9780113  22.6322753  49.4126493  25.4640113  22.2202753  49.9836493
  25.8520113  23.4762753  49.5936493  25.8840113  22.6962753  49.5236493
  26.5350113  11.8572753  44.0436493  26.5840113  11.5392753  44.8546493
  26.8580113  11.2132753  43.5506493  26.5900113  11.7152753  44.0906493
  12.6220113  26.3082753  56.4936493  13.3780113  26.6572753  56.7516493
  12.7990113  25.4552753  56.4366493  12.7600113  26.2332753  56.5236493
  28.9990113  16.0932753  52.3516493  29.7710113  15.8682753  52.6886493
  28.5240113  16.3102753  53.0516493  29.0430113  16.0922753  52.5046493
  16.5430113  15.3762753  45.3216493  16.8150113  14.9462753  44.6136493
  16.3670113  14.7402753  45.8926493  16.5570113  15.2192753  45.3016493
  29.2310113  23.0712753  39.5396493  29.3500113  22.7842753  40.3546493
  30.0380113  23.0922753  39.2096493  29.3670113  23.0322753  39.6116493
  16.3670113  22.8032753  44.8706493  17.2180113  22.7232753  44.6976493
  16.0100113  22.1212753  44.4586493  16.4400113  22.6902753  44.7836493
  15.1340113  29.5282753  46.1076493  14.4610113  29.0302753  45.8626493
  15.5370113  29.7132753  45.3566493  15.0940113  29.4822753  45.9606493
  14.6840113  16.4782753  48.4036493  15.5270113  16.6982753  48.3606493
  14.2950113  17.0512753  47.8726493  14.7510113  16.5952753  48.3186493
  31.4650113  27.5802753  53.7936493  30.7830113  27.8902753  53.3466493
  31.0960113  27.1222753  54.4386493  31.3090113  27.5582753  53.8226493
  27.1260113  19.6082753  39.1246493  26.9060113  20.3392753  38.7026493
  26.6780113  19.6592753  39.8716493  27.0270113  19.7232753  39.1726493
  18.7350113  22.8102753  43.1056493  19.4480113  23.3052753  43.1956493
  18.9570113  22.2432753  42.4796493  18.8730113  22.7992753  43.0266493
  31.3130113  14.4692753  38.5776493  30.6510113  13.9012753  38.6006493
  31.1200113  14.9812753  37.8976493  31.1870113  14.4612753  38.4806493
  12.8910113  24.4532753  46.4256493  12.2240113  24.9412753  46.7016493
  13.5710113  24.9982753  46.4546493  12.8930113  24.6052753  46.4706493
  20.5380113  18.1632753  56.5216493  20.0540113  18.7402753  56.9636493
  20.5100113  18.4582753  55.7006493  20.4620113  18.2922753  56.4656493
  31.6360113  18.8472753  51.1336493  31.8510113  18.0472753  50.8576493
  30.7860113  18.9072753  50.9446493  31.5420113  18.7382753  51.0646493
  12.9570113  21.1372753  41.5286493  12.7720113  20.2982753  41.6806493
  13.6160113  21.1012753  40.9586493  13.0270113  21.0082753  41.4666493
  23.2580113  26.5132753  45.4326493  22.7350113  27.1472753  45.1396493
  23.5680113  26.1492753  44.7036493  23.2260113  26.5532753  45.2816493
  13.1290113  25.3012753  41.1036493  13.6810113  25.8702753  41.4676493
  12.8970113  24.7862753  41.7686493  13.1760113  25.3092753  41.2556493
  17.3330113  24.3012753  48.1926493  17.8000113  24.5902753  48.8706493
  17.9050113  23.8232753  47.7386493  17.4870113  24.2732753  48.2256493
  25.7690113  16.3152753  45.9296493  26.1130113  16.4672753  46.7166493
  25.3160113  15.5772753  46.0426493  25.7530113  16.2282753  46.0626493
  12.9590113  23.7502753  38.7316493  13.7150113  23.3182753  38.7896493
  12.9740113  24.2822753  39.4226493  13.0730113  23.7652753  38.8426493
  13.8990113  21.9712753  46.7366493  14.3300113  21.8422753  45.9896493
  13.6940113  22.8192753  46.7106493  13.9320113  22.0772753  46.6226493
  20.2450113  15.5352753  40.3866493  20.2430113  15.4182753  39.5216493
  20.0640113  16.3832753  40.4786493  20.2180113  15.6432753  40.2726493
  29.2990113  27.9622753  51.8836493  28.6280113  28.4762753  52.1016493
  29.3620113  28.0622753  51.0196493  29.2090113  28.0532753  51.7886493
  17.9830113  25.4872753  45.0186493  18.1090113  26.3302753  45.2056493
  18.6510113  25.0882753  45.4146493  18.1010113  25.5532753  45.1046493
  16.1130113  18.9702753  54.8806493  15.5770113  18.4642753  55.3486493
  16.1330113  18.5802753  54.1006493  16.0360113  18.8372753  54.8346493
  16.5980113  18.3672753  40.0206493  16.4700113  17.9192753  40.7586493
  16.0160113  18.0252753  39.4686493  16.4930113  18.2502753  40.0486493
  16.7650113  20.1972753  46.6196493  15.9840113  20.1382753  46.2366493
  16.8370113  19.4452753  47.0566493  16.6600113  20.0782753  46.6276493
  17.1950113  19.9342753  50.0876493  17.2200113  19.2592753  49.5366493
  16.5490113  20.4302753  49.7756493  17.1040113  19.9072753  49.9606493
  27.0900113  17.6472753  48.4836493  26.4280113  17.9752753  48.9466493
  27.2770113  18.2812753  47.9146493  27.0200113  17.7892753  48.4676493
  21.2950113  28.7112753  49.4796493  21.0180113  28.0702753  48.9566493
  21.0870113  29.4372753  49.0416493  21.2240113  28.7242753  49.3376493
  23.7350113  13.5532753  51.9126493  23.8840113  12.7282753  51.6696493
  24.1140113  13.6082753  52.6966493  23.8130113  13.4392753  51.9926493
  25.2830113  15.6162753  41.9946493  25.7730113  16.3332753  41.9176493
  24.4930113  15.8772753  41.7316493  25.2390113  15.7602753  41.9446493
  14.9940113  21.2892753  55.6466493  14.9570113  21.7902753  54.9326493
  15.3250113  20.5372753  55.3516493  15.0370113  21.2512753  55.4976493
  26.5970113  23.4942753  53.9046493  27.0810113  24.2122753  54.0026493
  26.9910113  23.0672753  53.2536493  26.7270113  23.5372753  53.8226493
  20.8930113  26.3392753  55.0816493  21.2470113  26.1612753  55.8586493
  20.4570113  25.6102753  54.8826493  20.8810113  26.2052753  55.1676493
  21.8650113  17.0862753  47.7196493  22.3450113  17.7852753  47.9276493
  22.2380113  16.4392753  48.1706493  21.9910113  17.0942753  47.8166493
  29.0260113  24.1252753  43.9746493  29.3820113  23.7752753  44.6896493
  29.0180113  23.4642753  43.4046493  29.0780113  23.9752753  43.9956493
  25.0710113  27.1912753  47.8186493  24.4680113  26.8952753  47.2616493
  25.6160113  27.6432753  47.3096493  25.0620113  27.2142753  47.6606493
  25.0840113  24.0422753  47.2186493  24.2870113  24.2662753  47.4926493
  25.3420113  23.4482753  47.8036493  25.0040113  23.9872753  47.3456493
  18.9760113  28.8542753  41.6666493  18.8290113  28.0782753  42.0376493
  19.6650113  28.7072753  41.1516493  19.0560113  28.7172753  41.6456493
  18.6470113  12.5972753  39.6546493  18.7440113  12.4902753  40.5156493
  17.9390113  13.1032753  39.5896493  18.5570113  12.6562753  39.7726493
  21.2680113  28.3702753  40.0686493  21.8900113  28.5332753  40.6586493
  21.3040113  29.0612753  39.5366493  21.3650113  28.4962753  40.0776493
  28.3440113  22.0402753  52.0646493  28.3990113  22.1652753  51.2026493
  29.0970113  22.3602753  52.3666493  28.4630113  22.1052753  51.9816493
  24.5350113  27.3892753  56.3416493  24.6990113  27.6722753  57.1506493
  24.7980113  28.0502753  55.8366493  24.5980113  27.5292753  56.3866493
  29.3760113  12.3382753  55.0516493  28.7390113  11.9382753  54.6096493
  29.4020113  11.9072753  55.8096493  29.2860113  12.2162753  55.0976493
  15.7690113  20.9042753  40.8976493  16.0930113  20.1252753  40.6756493
  16.4150113  21.2722753  41.3526493  15.9120113  20.8432753  40.9316493
  24.0750113  21.8462753  51.6646493  23.9200113  22.4562753  52.2686493
  24.6090113  21.2882753  52.0706493  24.1310113  21.8542753  51.8136493
  12.7660113  12.5652753  41.8656493  12.8950113  11.8572753  41.3736493
  12.3990113  12.2472753  42.5906493  12.7310113  12.4132753  41.9006493
  22.4590113  20.2462753  42.3226493  22.5180113  20.8962753  42.9016493
  22.2700113  19.5502753  42.8136493  22.4400113  20.2392753  42.4806493
  27.6850113  24.5752753  48.1916493  27.2060113  24.8732753  47.5256493
  27.3290113  23.7992753  48.3696493  27.5620113  24.5042753  48.1196493
  16.9550113  14.7632753  38.8346493  16.4440113  14.8162753  38.1286493
  17.7390113  15.0032753  38.5386493  16.9950113  14.8062753  38.6866493
  21.6820113  22.2932753  46.7536493  20.8350113  22.0992753  46.8346493
  22.0060113  22.1282753  47.5466493  21.6040113  22.2402753  46.8826493
  18.4340113  29.0232753  37.6396493  18.8730113  28.3262753  37.9276493
  18.6410113  29.6472753  38.2126493  18.5300113  29.0122753  37.7666493
  15.5300113  21.9862753  49.0696493  16.2520113  22.4742753  49.0326493
  15.2600113  21.9562753  48.2406493  15.5970113  22.0542753  48.9416493
  18.7600113  17.1572753  45.8046493  19.6060113  16.9672753  45.9026493
  18.3900113  16.3802753  45.6666493  18.8300113  17.0142753  45.7986493
  13.5810113  18.4952753  42.4596493  14.0700113  18.2032753  43.1206493
  13.7100113  17.9022753  41.8326493  13.6720113  18.3642753  42.4646493
  28.6160113  21.5172753  49.3106493  28.6090113  20.7412753  49.7086493
  27.7750113  21.7512753  49.3036493  28.4910113  21.4372753  49.3686493
  18.1060113  19.9292753  37.9456493  17.4960113  19.5242753  38.4196493
  17.7200113  20.0472753  37.1726493  17.9590113  19.8862753  37.9016493
  14.9250113  23.0382753  53.3476493  14.5040113  22.5202753  52.7866493
  14.5730113  23.8242753  53.2046493  14.8110113  23.0782753  53.2436493
  29.8720113  21.5882753  46.7476493  29.5860113  21.9892753  47.4676493
  30.7320113  21.5262753  46.8746493  29.9570113  21.6382753  46.8726493
  19.5610113  18.3902753  40.6556493  19.8330113  19.2162753  40.7226493
  18.6980113  18.4652753  40.5596493  19.4740113  18.5232753  40.6506493
  27.5340113  15.5122753  55.2876493  27.0090113  15.9712753  55.8116493
  27.1730113  14.7172753  55.2816493  27.4030113  15.4622753  55.3636493
  13.0410113  14.3602753  47.1916493  13.0850113  14.7042753  46.3906493
  13.7960113  14.5972753  47.5586493  13.1590113  14.4462753  47.1276493
  26.0260113  19.0812753  55.3636493  26.0990113  19.1852753  56.2266493
  25.3920113  19.6392753  55.1426493  25.9430113  19.1792753  55.4586493
  28.2940113  19.4002753  53.7286493  28.6130113  20.1862753  53.9316493
  27.9240113  19.1302753  54.4716493  28.2870113  19.4762753  53.8686493
  27.6080113  25.8242753  39.2586493  27.9420113  25.0182753  39.2936493
  26.8530113  25.7522753  39.6886493  27.5460113  25.6942753  39.3276493
  28.0900113  17.6582753  44.9176493  27.3450113  17.3352753  45.2356493
  28.0920113  18.4842753  45.1976493  27.9800113  17.7322753  45.0056493
  30.5300113  23.6182753  52.6696493  31.1580113  23.0692753  52.4136493
  30.4690113  24.1832753  52.0076493  30.6140113  23.6212753  52.5336493
  24.9820113  23.6992753  38.6616493  25.6660113  23.1852753  38.4926493
  24.5650113  23.7452753  37.8966493  25.0210113  23.6302753  38.5236493
  19.6640113  24.8492753  49.9656493  19.3660113  25.4412753  50.5326493
  19.7190113  25.2912753  49.2166493  19.6280113  25.0022753  49.9386493
  17.6430113  23.7992753  53.3636493  16.8370113  23.5092753  53.5306493
  17.5540113  24.6672753  53.3696493  17.5110113  23.8842753  53.3886493
  27.0020113  13.9882753  52.3786493  27.7460113  14.4402753  52.3156493
  26.4360113  14.4582753  51.9096493  27.0290113  14.1252753  52.3006493
  22.1800113  21.2722753  49.4566493  22.6560113  21.6462753  50.0846493
  21.3570113  21.4062753  49.7156493  22.1290113  21.3472753  49.5876493
  18.8900113  16.8752753  52.1976493  19.0510113  16.1312753  52.6246493
  18.8450113  16.6262753  51.3626493  18.9070113  16.7282753  52.1376493
  21.4440113  28.6652753  44.6846493  21.9900113  29.3442753  44.7386493
  21.0940113  28.7472753  43.8896493  21.4730113  28.7782753  44.5746493
  28.2870113  11.9682753  50.0486493  28.0070113  12.7932753  50.0046493
  29.0030113  12.0212753  50.5446493  28.3520113  12.0982753  50.1156493
  20.6420113  12.6832753  52.0776493  21.3470113  13.0032753  51.6756493
  20.8830113  11.8762753  52.3046493  20.7810113  12.6112753  52.0516493
  19.6270113  26.8932753  48.0736493  19.0030113  27.4752753  47.8916493
  19.8750113  26.6072753  47.2876493  19.5710113  26.9372753  47.9306493
  23.9360113  23.5272753  55.0626493  24.6930113  23.8132753  54.7366493
  23.3890113  23.5792753  54.3846493  23.9670113  23.5772753  54.9136493
  27.8450113  26.0772753  53.5666493  28.1910113  26.3472753  54.3206493
  28.1390113  26.6592753  52.9866493  27.9400113  26.2032753  53.5926493
  29.7080113  18.2232753  38.9056493  30.0860113  18.9002753  38.5056493
  28.8660113  18.4472753  38.9366493  29.6390113  18.3562753  38.8506493
  21.2210113  21.6692753  37.9886493  20.4160113  21.4922753  37.7036493
  21.1880113  22.5202753  38.1806493  21.0970113  21.7682753  37.9756493
  17.1510113  17.7362753  48.1386493  17.5910113  17.6332753  47.3926493
  17.6960113  17.4232753  48.7436493  17.2960113  17.6752753  48.1176493
  25.1670113  16.8382753  53.7306493  24.5190113  17.3082753  54.0786493
  25.7320113  16.7492753  54.3896493  25.1550113  16.8942753  53.8796493
  24.8550113  18.3752753  50.0286493  25.1570113  18.7952753  50.7316493
  24.8910113  17.5352753  50.2606493  24.9050113  18.3132753  50.1666493
  22.2800113  28.5422753  53.9536493  22.7580113  27.9422753  53.5376493
  21.9290113  28.0992753  54.6186493  22.2990113  28.3882753  53.9906493
  27.4030113  17.8222753  42.2806493  27.6100113  17.6212753  43.1046493
  28.1590113  18.0902753  41.9386493  27.5450113  17.8322753  42.3516493
  20.6980113  12.7212753  48.1856493  19.8720113  12.5722753  48.4226493
  20.6580113  12.7562753  47.3146493  20.5700113  12.7042753  48.0916493
  28.4250113  13.9052753  43.7546493  27.7110113  13.4342753  43.9256493
  28.2630113  14.2462753  42.9686493  28.2960113  13.8862753  43.6636493
  28.8680113  21.8492753  42.1346493  29.3440113  21.1202753  42.0866493
  28.0470113  21.5632753  42.0586493  28.8170113  21.6992753  42.1156493
  22.3390113  23.7612753  52.9736493  21.5440113  23.6972753  53.3246493
  22.4100113  24.6082753  52.7786493  22.2320113  23.8762753  52.9966493
  13.2630113  13.1192753  54.2206493  13.1230113  13.9142753  53.8896493
  12.4770113  12.8762753  54.5096493  13.1260113  13.2012753  54.2146493
  18.1690113  29.9682753  48.2906493  18.1800113  30.0272753  49.1606493
  17.7440113  29.2212753  48.1406493  18.1080113  29.8662753  48.3966493
  16.3270113  15.8632753  41.4456493  16.4530113  15.5342753  40.6476493
  15.5150113  15.6142753  41.6446493  16.2260113  15.7782753  41.3576493
  25.0840113  23.0162753  44.4896493  25.1600113  23.3572753  45.2886493
  25.2530113  22.1692753  44.6106493  25.1200113  22.9412753  44.6256493
  22.6060113  22.2902753  44.0546493  22.3080113  21.9752753  44.8116493
  23.3010113  22.7632753  44.2896493  22.6650113  22.3132753  44.2016493
  22.8280113  26.4082753  52.0816493  23.5150113  26.2942753  52.6066493
  22.9620113  27.1992753  51.7376493  22.9490113  26.5082753  52.1086493
  31.0040113  19.0172753  53.8926493  30.1490113  18.8952753  54.0186493
  31.1570113  18.6222753  53.1296493  30.9000113  18.9402753  53.7986493
  25.5170113  19.6822753  52.4686493  25.2620113  18.9632753  52.8906493
  26.3380113  19.7982753  52.7386493  25.6010113  19.5932753  52.5706493
  14.9330113  29.4662753  53.7326493  14.2790113  28.8972753  53.8306493
  14.5580113  30.2392753  53.8836493  14.7810113  29.4962753  53.7696493
  23.4510113  20.8722753  55.6556493  23.7740113  21.5582753  55.2236493
  22.7470113  21.1952753  56.0576493  23.3940113  21.0212753  55.6506493
  26.5350113  29.2462753  46.5846493  26.0840113  29.8892753  46.9636493
  27.2430113  29.1672753  47.0896493  26.5730113  29.3292753  46.7156493
  23.2360113  24.3362753  49.5146493  22.5420113  24.7382753  49.8576493
  23.9130113  24.7692753  49.8536493  23.2330113  24.4592753  49.6156493
  28.6130113  26.9292753  56.0946493  29.3890113  26.5392753  56.1776493
  28.1440113  26.5932753  56.7496493  28.6580113  26.8222753  56.2036493
  16.3040113  17.8742753  51.8616493  16.6790113  18.4932753  51.3746493
  16.9780113  17.4002753  52.1466493  16.4590113  17.8962753  51.8316493
  14.0790113  16.3222753  51.1366493  14.1560113  16.1532753  50.2836493
  14.8250113  16.7282753  51.3336493  14.2000113  16.3572753  51.0396493
  29.6380113  18.9622753  41.5766493  29.7410113  18.9042753  40.7126493
  30.3790113  18.6302753  41.8946493  29.7630113  18.9052753  41.4956493
  16.6330113  13.7322753  53.5476493  16.5520113  12.8882753  53.7536493
  16.3190113  13.7762753  52.7346493  16.5750113  13.6142753  53.4576493
  23.5580113  25.9272753  42.6836493  23.3530113  26.7602753  42.5246493
  22.7830113  25.5452753  42.8056493  23.4130113  25.9942753  42.6786493
  28.7400113  19.1082753  50.9326493  28.7380113  18.2452753  51.0566493
  28.8070113  19.4322753  51.7396493  28.7500113  19.0282753  51.0696493
  13.4760113  21.5482753  51.3606493  13.7960113  21.7672753  50.5796493
  13.3760113  20.6832753  51.3056493  13.5080113  21.4532753  51.2376493
  14.9320113  17.4842753  37.9786493  14.2600113  17.4982753  38.5346493
  15.0270113  16.6362753  37.7946493  14.8470113  17.3612753  38.0336493
  24.6190113  13.9082753  54.7146493  24.7110113  14.6202753  55.2086493
  23.9820113  13.4632753  55.1116493  24.5380113  13.9472753  54.8466493
  23.6130113  14.0982753  45.5686493  22.9130113  14.6162753  45.5126493
  23.6510113  13.7182753  44.7846493  23.5150113  14.1192753  45.4446493
  18.9200113  26.1892753  39.0926493  19.3610113  26.2692753  39.8406493
  18.1150113  25.9732753  39.3506493  18.8660113  26.1692753  39.2416493
  27.2110113  14.6142753  48.3686493  28.0660113  14.7132753  48.5136493
  26.8420113  15.1672753  48.9336493  27.2830113  14.7112753  48.4736493
  18.2390113  20.8402753  52.7456493  17.8430113  21.6142753  52.8206493
  17.8330113  20.4672753  52.0696493  18.1210113  20.8992753  52.6566493
  27.5150113  19.8942753  46.8596493  28.1810113  20.4352753  47.0196493
  27.1700113  20.2052753  46.1206493  27.5620113  20.0202753  46.7746493
  27.8280113  27.9602753  42.6666493  27.6540113  27.3062753  43.2166493
  28.5410113  27.6892753  42.2436493  27.9080113  27.8232753  42.6856493
  16.2490113  25.2592753  39.6936493  16.0050113  24.9522753  40.4736493
  16.2160113  24.5562753  39.1776493  16.2080113  25.1102753  39.7326493
  19.0680113  23.5042753  38.4366493  18.2500113  23.2362753  38.5766493
  19.0400113  24.3562753  38.6216493  18.9430113  23.5912753  38.4846493
  18.6680113  13.8172753  50.1956493  17.8040113  13.9012753  50.2756493
  18.8880113  13.3032753  50.8646493  18.5730113  13.7542753  50.3066493
  30.6860113  12.4522753  51.5246493  30.6340113  12.4082753  52.3946493
  31.3730113  11.9492753  51.3346493  30.7800113  12.3722753  51.6246493
  22.7710113  14.5652753  48.5696493  22.0340113  14.1112753  48.6826493
  23.3420113  14.1632753  49.0926493  22.7460113  14.4382753  48.6636493
  25.5030113  25.4132753  50.3576493  25.7090113  25.7142753  51.1496493
  25.4420113  26.1352753  49.8726493  25.5240113  25.5642753  50.4026493
  25.0370113  29.6272753  54.6036493  24.2840113  29.6092753  54.1626493
  25.2050113  30.4792753  54.6876493  24.9510113  29.7502753  54.5506493
  20.2740113  18.8942753  53.7736493  19.9520113  18.3182753  53.2036493
  19.9150113  19.6492753  53.5276493  20.1740113  18.9202753  53.6536493
  21.0700113  12.1462753  38.4006493  21.1480113  12.3932753  37.5676493
  20.3270113  12.5232753  38.6586493  20.9720113  12.2382753  38.3156493
  30.3150113  24.0522753  49.8156493  30.2830113  23.1902753  49.6806493
  29.6220113  24.3542753  49.3816493  30.2080113  23.9692753  49.7316493
  18.7090113  29.2502753  54.0216493  18.7500113  29.3762753  54.8846493
  19.3600113  28.6902753  53.8656493  18.8110113  29.1862753  54.1266493
  15.8880113  13.9002753  50.8436493  15.5450113  13.1332753  50.6096493
  15.1930113  14.4242753  50.9076493  15.7350113  13.8642753  50.8186493
  24.9340113  12.7562753  47.8206493  25.6040113  13.3002753  47.9476493
  24.4310113  13.1802753  47.2476493  24.9590113  12.8992753  47.7546493
  16.3020113  27.6332753  55.3816493  16.8970113  28.0642753  55.8536493
  15.9380113  28.2572753  54.8926493  16.3360113  27.7892753  55.3786493
  24.2930113  18.5642753  45.3136493  24.8440113  17.9572753  45.6136493
  23.8680113  18.8272753  46.0286493  24.3120113  18.5132753  45.4626493
  14.5410113  17.2142753  44.7996493  14.1730113  17.5162753  45.5306493
  15.0750113  16.5852753  45.0836493  14.5650113  17.1662753  44.9496493
  14.2290113  25.6222753  52.3106493  13.6550113  26.0382753  52.8196493
  14.9620113  26.0872753  52.4056493  14.2530113  25.7522753  52.3996493
  26.2630113  20.3952753  41.8756493  26.3310113  19.5452753  42.0566493
  25.4400113  20.4812753  41.5976493  26.1510113  20.2822753  41.8616493
  16.0150113  28.8892753  41.0856493  15.8700113  29.0452753  40.2396493
  16.8810113  28.9682753  41.1636493  16.1220113  28.9242753  40.9726493
  20.1820113  21.2862753  40.8136493  20.2820113  21.4252753  39.9586493
  21.0000113  21.2262753  41.1096493  20.3170113  21.2972753  40.7306493
  29.5370113  21.7682753  55.0266493  30.1710113  21.5982753  55.6006493
  29.9540113  22.1712753  54.3746493  29.6920113  21.8032753  55.0156493
  25.4170113  25.6152753  40.6156493  25.1660113  25.4872753  41.4416493
  25.1000113  24.9202753  40.1946493  25.3330113  25.4942753  40.6756493
  30.1620113  16.3322753  55.7646493  29.9660113  16.9762753  56.3196493
  29.4400113  15.8422753  55.7566493  30.0270113  16.3552753  55.8456493
  30.0610113  17.2732753  48.7356493  29.2280113  17.5232753  48.6636493
  30.0050113  16.4332753  48.9646493  29.9300113  17.1862753  48.7586493
  19.3210113  14.2612753  53.9296493  19.5550113  13.6852753  53.3166493
  18.4790113  14.0802753  54.0706493  19.2310113  14.1492753  53.8596493
  26.9480113  21.8792753  56.3816493  27.8190113  21.8432753  56.3456493
  26.7290113  22.2992753  55.6496493  27.0450113  21.9352753  56.2686493
  16.7020113  27.7042753  47.5626493  16.6230113  26.8942753  47.2466493
  16.2580113  28.1912753  46.9906493  16.6250113  27.6562753  47.4316493
  22.3030113  23.8232753  40.0456493  23.0200113  23.4762753  39.6896493
  22.2690113  24.6232753  39.6976493  22.4040113  23.8902753  39.9416493
  14.2740113  29.9482753  51.1436493  14.7670113  29.8922753  51.8616493
  14.4620113  29.2152753  50.7086493  14.3750113  29.8312753  51.1856493
  23.7120113  12.4642753  24.2844083  23.4670113  12.9522753  23.6044083
  24.5750113  12.3912753  24.1844083  23.8030113  12.5252753  24.1694083
  23.5210113  19.3802753  28.9554083  22.9970113  19.9762753  29.3184083
  23.9180113  19.0122753  29.6394083  23.5020113  19.4142753  29.1104083
  13.3900113  23.5202753  24.4114083  12.9490113  23.6382753  25.1544083
  13.1070113  22.7452753  24.1264083  13.2830113  23.4232753  24.4794083
  29.6650113  26.8212753  21.9264083  30.3660113  26.3022753  21.9224083
  29.0780113  26.3762753  21.4574083  29.6820113  26.6782753  21.8564083
  13.1330113  17.3122753  20.9184083  12.3550113  17.4742753  20.5584083
  13.1720113  16.4412753  20.9404083  13.0240113  17.2072753  20.8684083
  16.2720113  22.5752753  19.5904083  15.8800113  22.2042753  18.9044083
  16.1920113  21.9772753  20.2194083  16.2020113  22.4322753  19.5814083
  26.1920113  20.4472753  25.6314083  26.2720113  20.4512753  24.7624083
  25.6080113  19.8152753  25.7804083  26.1170113  20.3542753  25.5254083
  15.8990113  24.2162753  23.4904083  16.5070113  24.0462753  24.0934083
  15.1480113  24.0762753  23.9114083  15.8780113  24.1702753  23.6414083
  20.1810113  13.5512753  23.4394083  20.1110113  14.2282753  22.8934083
  20.9220113  13.1632753  23.1904083  20.2800113  13.5942753  23.3214083
  14.7900113  27.3072753  19.5674083  15.2570113  27.3912753  18.8354083
  15.2450113  26.7292753  20.0364083  14.9260113  27.2342753  19.5284083
  13.3300113  26.2552753  30.6664083  13.4590113  25.9752753  31.4824083
  12.7200113  25.7142753  30.3574083  13.2590113  26.1342753  30.7414083
  19.9040113  23.7802753  35.7334083  19.6680113  23.7772753  36.5734083
  19.1560113  23.6322753  35.3094083  19.7580113  23.7572753  35.7944083
  14.7760113  20.7762753  24.8684083  14.3140113  20.3842753  24.2414083
  15.4760113  20.2632753  24.9604083  14.8110113  20.6432753  24.7894083
  19.2840113  16.3862753  30.2154083  19.9620113  16.4042753  29.6664083
  19.2390113  15.5502753  30.4604083  19.3770113  16.2652753  30.1704083
  19.8860113  26.9722753  32.9964083  20.0240113  27.7322753  32.5894083
  20.6770113  26.6072753  33.0234083  20.0230113  27.0312753  32.9404083
  16.7770113  18.8762753  24.8914083  17.5940113  18.6892753  25.1344083
  16.3000113  18.2622753  25.2874083  16.8270113  18.7582753  24.9864083
  20.9810113  24.8572753  27.5014083  21.3290113  24.0582753  27.5314083
  21.6460113  25.3612753  27.2464083  21.1310113  24.8132753  27.4684083
  21.0380113  24.3062753  23.7124083  21.3690113  23.6622753  24.1984083
  21.2780113  24.0952753  22.9014083  21.1220113  24.1802753  23.6644083
  23.0060113  18.4372753  35.0514083  22.1580113  18.3382753  34.8734083
  23.0350113  19.1822753  35.5054083  22.8850113  18.5332753  35.0924083
  17.3740113  13.9702753  24.1574083  17.0780113  14.4712753  23.5074083
  18.2410113  14.0482753  24.1004083  17.4580113  14.0562753  24.0534083
  27.5640113  11.3972753  34.1654083  27.4060113  12.1662753  33.7834083
  26.7920113  11.1772753  34.5094083  27.4260113  11.4782753  34.1604083
  20.3530113  13.1122753  26.3804083  20.4260113  13.9722753  26.5094083
  20.3150113  13.0372753  25.5124083  20.3580113  13.2282753  26.2714083
  25.0260113  16.0382753  18.6794083  24.5760113  16.7192753  18.9864083
  25.1400113  15.5342753  19.3824083  24.9770113  16.0642753  18.8284083
  13.2320113  18.5372753  27.8814083  12.9760113  19.3682753  27.8064083
  12.5680113  18.1542753  28.2984083  13.0960113  18.6032753  27.9324083
  13.1420113  28.2472753  25.7814083  12.5500113  28.8052753  25.4684083
  13.5680113  27.9782753  25.0694083  13.1180113  28.2892753  25.6304083
  18.9820113  26.0912753  23.2614083  18.4030113  25.8162753  23.8534083
  19.6060113  25.4822753  23.2864083  18.9890113  25.9612753  23.3524083
  25.1250113  28.3792753  20.7834083  25.8520113  28.8512753  20.8854083
  25.3540113  27.5852753  21.0634083  25.2670113  28.3322753  20.8404083
  23.2930113  28.7712753  22.7734083  23.5070113  29.2982753  23.4354083
  24.0600113  28.5972753  22.3944083  23.4380113  28.8232753  22.8154083
  16.2610113  13.3542753  28.3724083  15.7400113  12.7262753  28.0644083
  16.8520113  12.9172753  28.8434083  16.2720113  13.1962753  28.3964083
  19.5670113  15.4872753  37.6704083  19.6840113  15.0332753  36.9344083
  19.8550113  16.2852753  37.4674083  19.6270113  15.5382753  37.5314083
  14.6870113  26.9172753  23.7124083  15.3430113  26.3422753  23.7274083
  15.0760113  27.6662753  23.4914083  14.8420113  26.9422753  23.6824083
  30.4200113  16.0112753  24.9744083  30.0740113  16.6892753  25.4004083
  29.7840113  15.4132753  24.9904083  30.2750113  16.0232753  25.0394083
  25.7320113  28.7812753  31.0784083  26.4760113  29.2372753  31.0684083
  25.6110113  28.5672753  30.2414083  25.8240113  28.8172753  30.9534083
  15.3000113  15.0842753  36.6544083  14.5220113  14.6942753  36.5824083
  15.7910113  14.6722753  36.0634083  15.2570113  14.9652753  36.5564083
  15.5050113  25.4042753  27.2124083  15.9280113  25.0482753  26.5384083
  15.8290113  24.9822753  27.9044083  15.6150113  25.2892753  27.2154083
  18.7360113  28.2562753  26.5084083  19.5800113  28.3602753  26.3134083
  18.4390113  29.0742753  26.5764083  18.8170113  28.3922753  26.4894083
  21.9490113  12.7272753  35.8224083  22.1270113  11.9182753  35.5474083
  21.8060113  13.1682753  35.0834083  21.9540113  12.6732753  35.6724083
  22.5430113  17.6532753  24.5954083  22.8300113  17.4212753  23.8054083
  23.2750113  17.7322753  25.0644083  22.6930113  17.6302753  24.5484083
  23.2650113  17.9922753  19.7164083  23.5460113  18.7802753  19.9654083
  22.4890113  18.1572753  19.3534083  23.1920113  18.1332753  19.6994083
  27.3060113  29.9662753  21.1834083  27.9710113  29.8182753  20.6384083
  27.6660113  29.8832753  21.9734083  27.4580113  29.9322753  21.2194083
  17.7340113  29.4752753  32.2484083  18.0260113  29.4082753  33.0684083
  17.1080113  28.8702753  32.2034083  17.6850113  29.3762753  32.3634083
  30.0950113  14.3342753  30.3434083  30.8520113  14.4062753  29.9154083
  30.1580113  13.5612753  30.7424083  30.2160113  14.2312753  30.3384083
  12.6480113  15.6322753  34.2404083  12.6440113  16.2192753  34.8864083
  13.2420113  15.9442753  33.6834083  12.7350113  15.7652753  34.2534083
  24.9860113  25.9662753  34.7824083  24.9520113  26.3482753  35.5664083
  25.8400113  25.9242753  34.6114083  25.1070113  26.0162753  34.8734083
  22.1240113  26.1632753  19.5324083  21.9430113  26.7082753  20.1894083
  22.8900113  26.4532753  19.2314083  22.2100113  26.2872753  19.5854083
  25.6310113  14.0592753  20.5864083  26.1710113  13.3772753  20.6624083
  25.6930113  14.4572753  21.3604083  25.7200113  14.0172753  20.7124083
  13.5850113  15.2272753  23.1554083  13.4710113  14.3632753  23.1864083
  13.1100113  15.5212753  23.8254083  13.4980113  15.1432753  23.2584083
  15.7270113  27.6372753  31.3704083  15.0290113  27.1292753  31.4964083
  15.9870113  27.4322753  30.5624083  15.6620113  27.5322753  31.2694083
  22.8890113  16.4352753  21.9004083  22.3810113  15.7732753  21.6464083
  22.9410113  16.9392753  21.1904083  22.8220113  16.4122753  21.7584083
  23.4380113  29.1302753  32.2804083  24.2060113  29.0502753  31.8744083
  22.8550113  29.0092753  31.6424083  23.4650113  29.1002753  32.1264083
  22.8890113  13.3762753  21.7914083  22.4340113  12.9742753  21.1654083
  23.6620113  13.5312753  21.4164083  22.9360113  13.3402753  21.6434083
  29.7150113  29.7332753  25.1814083  29.2600113  30.4502753  25.3824083
  29.1010113  29.1622753  24.9394083  29.5570113  29.7552753  25.1754083
  21.4870113  15.7432753  26.3134083  21.5610113  16.3112753  25.6554083
  21.6080113  16.2352753  27.0234083  21.5150113  15.9002753  26.3214083
  26.7120113  25.5782753  24.7254083  27.4130113  25.0962753  24.9144083
  26.0520113  25.0092753  24.7704083  26.7180113  25.4232753  24.7594083
  17.0880113  26.4882753  33.9374083  17.9290113  26.5512753  33.7154083
  17.0510113  26.8852753  34.7134083  17.2070113  26.5562753  34.0194083
  16.0950113  11.5662753  24.6614083  16.6310113  12.2542753  24.6514083
  16.0980113  11.2922753  23.8334083  16.1740113  11.6272753  24.5374083
  19.0510113  21.9992753  28.6864083  19.2230113  21.7892753  29.5154083
  18.3960113  21.4652753  28.4704083  18.9800113  21.8892753  28.7774083
  25.2790113  15.9132753  32.2014083  25.1840113  16.2322753  33.0074083
  24.6860113  15.2742753  32.1634083  25.1770113  15.8652753  32.3154083
  19.8010113  21.9372753  31.2764083  19.8540113  22.7842753  31.4784083
  19.5160113  21.5672753  32.0134083  19.7670113  22.0072753  31.4144083
  25.9780113  22.6322753  30.4064083  25.4640113  22.2202753  30.9774083
  25.8520113  23.4762753  30.5874083  25.8840113  22.6962753  30.5174083
  26.5350113  11.8572753  25.0374083  26.5840113  11.5392753  25.8484083
  26.8580113  11.2132753  24.5444083  26.5900113  11.7152753  25.0844083
  12.6220113  26.3082753  37.4874083  13.3780113  26.6572753  37.7454083
  12.7990113  25.4552753  37.4304083  12.7600113  26.2332753  37.5174083
  28.9990113  16.0932753  33.3454083  29.7710113  15.8682753  33.6824083
  28.5240113  16.3102753  34.0454083  29.0430113  16.0922753  33.4984083
  16.5430113  15.3762753  26.3154083  16.8150113  14.9462753  25.6074083
  16.3670113  14.7402753  26.8864083  16.5570113  15.2192753  26.2954083
  29.2310113  23.0712753  20.5334083  29.3500113  22.7842753  21.3484083
  30.0380113  23.0922753  20.2034083  29.3670113  23.0322753  20.6054083
  16.3670113  22.8032753  25.8644083  17.2180113  22.7232753  25.6914083
  16.0100113  22.1212753  25.4524083  16.4400113  22.6902753  25.7774083
  15.1340113  29.5282753  27.1014083  14.4610113  29.0302753  26.8564083
  15.5370113  29.7132753  26.3504083  15.0940113  29.4822753  26.9544083
  14.6840113  16.4782753  29.3974083  15.5270113  16.6982753  29.3544083
  14.2950113  17.0512753  28.8664083  14.7510113  16.5952753  29.3124083
  31.4650113  27.5802753  34.7874083  30.7830113  27.8902753  34.3404083
  31.0960113  27.1222753  35.4324083  31.3090113  27.5582753  34.8164083
  27.1260113  19.6082753  20.1184083  26.9060113  20.3392753  19.6964083
  26.6780113  19.6592753  20.8654083  27.0270113  19.7232753  20.1664083
  18.7350113  22.8102753  24.0994083  19.4480113  23.3052753  24.1894083
  18.9570113  22.2432753  23.4734083  18.8730113  22.7992753  24.0204083
  31.3130113  14.4692753  19.5714083  30.6510113  13.9012753  19.5944083
  31.1200113  14.9812753  18.8914083  31.1870113  14.4612753  19.4744083
  12.8910113  24.4532753  27.4194083  12.2240113  24.9412753  27.6954083
  13.5710113  24.9982753  27.4484083  12.8930113  24.6052753  27.4644083
  20.5380113  18.1632753  37.5154083  20.0540113  18.7402753  37.9574083
  20.5100113  18.4582753  36.6944083  20.4620113  18.2922753  37.4594083
  31.6360113  18.8472753  32.1274083  31.8510113  18.0472753  31.8514083
  30.7860113  18.9072753  31.9384083  31.5420113  18.7382753  32.0584083
  12.9570113  21.1372753  22.5224083  12.7720113  20.2982753  22.6744083
  13.6160113  21.1012753  21.9524083  13.0270113  21.0082753  22.4604083
  29.3150113  14.0272753  21.8504083  30.0610113  13.6202753  22.0494083
  29.5780113  14.7422753  21.4254083  29.4640113  14.0732753  21.8174083
  23.2580113  26.5132753  26.4264083  22.7350113  27.1472753  26.1334083
  23.5680113  26.1492753  25.6974083  23.2260113  26.5532753  26.2754083
  13.1290113  25.3012753  22.0974083  13.6810113  25.8702753  22.4614083
  12.8970113  24.7862753  22.7624083  13.1760113  25.3092753  22.2494083
  17.3330113  24.3012753  29.1864083  17.8000113  24.5902753  29.8644083
  17.9050113  23.8232753  28.7324083  17.4870113  24.2732753  29.2194083
  25.7690113  16.3152753  26.9234083  26.1130113  16.4672753  27.7104083
  25.3160113  15.5772753  27.0364083  25.7530113  16.2282753  27.0564083
  12.9590113  23.7502753  19.7254083  13.7150113  23.3182753  19.7834083
  12.9740113  24.2822753  20.4164083  13.0730113  23.7652753  19.8364083
  13.8990113  21.9712753  27.7304083  14.3300113  21.8422753  26.9834083
  13.6940113  22.8192753  27.7044083  13.9320113  22.0772753  27.6164083
  20.2450113  15.5352753  21.3804083  20.2430113  15.4182753  20.5154083
  20.0640113  16.3832753  21.4724083  20.2180113  15.6432753  21.2664083
  29.2990113  27.9622753  32.8774083  28.6280113  28.4762753  33.0954083
  29.3620113  28.0622753  32.0134083  29.2090113  28.0532753  32.7824083
  17.9830113  25.4872753  26.0124083  18.1090113  26.3302753  26.1994083
  18.6510113  25.0882753  26.4084083  18.1010113  25.5532753  26.0984083
  16.1130113  18.9702753  35.8744083  15.5770113  18.4642753  36.3424083
  16.1330113  18.5802753  35.0944083  16.0360113  18.8372753  35.8284083
  16.5980113  18.3672753  21.0144083  16.4700113  17.9192753  21.7524083
  16.0160113  18.0252753  20.4624083  16.4930113  18.2502753  21.0424083
  16.7650113  20.1972753  27.6134083  15.9840113  20.1382753  27.2304083
  16.8370113  19.4452753  28.0504083  16.6600113  20.0782753  27.6214083
  17.1950113  19.9342753  31.0814083  17.2200113  19.2592753  30.5304083
  16.5490113  20.4302753  30.7694083  17.1040113  19.9072753  30.9544083
  27.0900113  17.6472753  29.4774083  26.4280113  17.9752753  29.9404083
  27.2770113  18.2812753  28.9084083  27.0200113  17.7892753  29.4614083
  21.2950113  28.7112753  30.4734083  21.0180113  28.0702753  29.9504083
  21.0870113  29.4372753  30.0354083  21.2240113  28.7242753  30.3314083
  23.7350113  13.5532753  32.9064083  23.8840113  12.7282753  32.6634083
  24.1140113  13.6082753  33.6904083  23.8130113  13.4392753  32.9864083
  25.2830113  15.6162753  22.9884083  25.7730113  16.3332753  22.9114083
  24.4930113  15.8772753  22.7254083  25.2390113  15.7602753  22.9384083
  14.9940113  21.2892753  36.6404083  14.9570113  21.7902753  35.9264083
  15.3250113  20.5372753  36.3454083  15.0370113  21.2512753  36.4914083
  26.5970113  23.4942753  34.8984083  27.0810113  24.2122753  34.9964083
  26.9910113  23.0672753  34.2474083  26.7270113  23.5372753  34.8164083
  20.8930113  26.3392753  36.0754083  21.2470113  26.1612753  36.8524083
  20.4570113  25.6102753  35.8764083  20.8810113  26.2052753  36.1614083
  21.8650113  17.0862753  28.7134083  22.3450113  17.7852753  28.9214083
  22.2380113  16.4392753  29.1644083  21.9910113  17.0942753  28.8104083
  24.0540113  20.2552753  20.9874083  24.0460113  20.9772753  20.4974083
  23.4150113  20.3902753  21.5644083  23.9590113  20.3822753  21.0004083
  29.0260113  24.1252753  24.9684083  29.3820113  23.7752753  25.6834083
  29.0180113  23.4642753  24.3984083  29.0780113  23.9752753  24.9894083
  25.0710113  27.1912753  28.8124083  24.4680113  26.8952753  28.2554083
  25.6160113  27.6432753  28.3034083  25.0620113  27.2142753  28.6544083
  25.0840113  24.0422753  28.2124083  24.2870113  24.2662753  28.4864083
  25.3420113  23.4482753  28.7974083  25.0040113  23.9872753  28.3394083
  18.9760113  28.8542753  22.6604083  18.8290113  28.0782753  23.0314083
  19.6650113  28.7072753  22.1454083  19.0560113  28.7172753  22.6394083
  18.6470113  12.5972753  20.6484083  18.7440113  12.4902753  21.5094083
  17.9390113  13.1032753  20.5834083  18.5570113  12.6562753  20.7664083
  21.2680113  28.3702753  21.0624083  21.8900113  28.5332753  21.6524083
  21.3040113  29.0612753  20.5304083  21.3650113  28.4962753  21.0714083
  28.3440113  22.0402753  33.0584083  28.3990113  22.1652753  32.1964083
  29.0970113  22.3602753  33.3604083  28.4630113  22.1052753  32.9754083
  24.5350113  27.3892753  37.3354083  24.6990113  27.6722753  38.1444083
  24.7980113  28.0502753  36.8304083  24.5980113  27.5292753  37.3804083
  29.3760113  12.3382753  36.0454083  28.7390113  11.9382753  35.6034083
  29.4020113  11.9072753  36.8034083  29.2860113  12.2162753  36.0914083
  15.7690113  20.9042753  21.8914083  16.0930113  20.1252753  21.6694083
  16.4150113  21.2722753  22.3464083  15.9120113  20.8432753  21.9254083
  24.0750113  21.8462753  32.6584083  23.9200113  22.4562753  33.2624083
  24.6090113  21.2882753  33.0644083  24.1310113  21.8542753  32.8074083
  12.7660113  12.5652753  22.8594083  12.8950113  11.8572753  22.3674083
  12.3990113  12.2472753  23.5844083  12.7310113  12.4132753  22.8944083
  22.4590113  20.2462753  23.3164083  22.5180113  20.8962753  23.8954083
  22.2700113  19.5502753  23.8074083  22.4400113  20.2392753  23.4744083
  27.6850113  24.5752753  29.1854083  27.2060113  24.8732753  28.5194083
  27.3290113  23.7992753  29.3634083  27.5620113  24.5042753  29.1134083
  16.9550113  14.7632753  19.8284083  16.4440113  14.8162753  19.1224083
  17.7390113  15.0032753  19.5324083  16.9950113  14.8062753  19.6804083
  21.6820113  22.2932753  27.7474083  20.8350113  22.0992753  27.8284083
  22.0060113  22.1282753  28.5404083  21.6040113  22.2402753  27.8764083
  18.4340113  29.0232753  18.6334083  18.8730113  28.3262753  18.9214083
  18.6410113  29.6472753  19.2064083  18.5300113  29.0122753  18.7604083
  15.5300113  21.9862753  30.0634083  16.2520113  22.4742753  30.0264083
  15.2600113  21.9562753  29.2344083  15.5970113  22.0542753  29.9354083
  18.7600113  17.1572753  26.7984083  19.6060113  16.9672753  26.8964083
  18.3900113  16.3802753  26.6604083  18.8300113  17.0142753  26.7924083
  31.3770113  28.7412753  21.1254083  32.0710113  28.2742753  20.8774083
  30.8380113  28.1432753  21.4624083  31.4000113  28.5832753  21.1384083
  13.5810113  18.4952753  23.4534083  14.0700113  18.2032753  24.1144083
  13.7100113  17.9022753  22.8264083  13.6720113  18.3642753  23.4584083
  28.6160113  21.5172753  30.3044083  28.6090113  20.7412753  30.7024083
  27.7750113  21.7512753  30.2974083  28.4910113  21.4372753  30.3624083
  18.1060113  19.9292753  18.9394083  17.4960113  19.5242753  19.4134083
  17.7200113  20.0472753  18.1664083  17.9590113  19.8862753  18.8954083
  14.9250113  23.0382753  34.3414083  14.5040113  22.5202753  33.7804083
  14.5730113  23.8242753  34.1984083  14.8110113  23.0782753  34.2374083
  29.8720113  21.5882753  27.7414083  29.5860113  21.9892753  28.4614083
  30.7320113  21.5262753  27.8684083  29.9570113  21.6382753  27.8664083
  19.5610113  18.3902753  21.6494083  19.8330113  19.2162753  21.7164083
  18.6980113  18.4652753  21.5534083  19.4740113  18.5232753  21.6444083
  27.5340113  15.5122753  36.2814083  27.0090113  15.9712753  36.8054083
  27.1730113  14.7172753  36.2754083  27.4030113  15.4622753  36.3574083
  13.0410113  14.3602753  28.1854083  13.0850113  14.7042753  27.3844083
  13.7960113  14.5972753  28.5524083  13.1590113  14.4462753  28.1214083
  31.0030113  27.2212753  28.2704083  31.2930113  27.4782753  27.4894083
  31.6980113  27.3172753  28.7894083  31.1490113  27.2732753  28.2314083
  26.0260113  19.0812753  36.3574083  26.0990113  19.1852753  37.2204083
  25.3920113  19.6392753  36.1364083  25.9430113  19.1792753  36.4524083
  28.2940113  19.4002753  34.7224083  28.6130113  20.1862753  34.9254083
  27.9240113  19.1302753  35.4654083  28.2870113  19.4762753  34.8624083
  27.6080113  25.8242753  20.2524083  27.9420113  25.0182753  20.2874083
  26.8530113  25.7522753  20.6824083  27.5460113  25.6942753  20.3214083
  28.0900113  17.6582753  25.9114083  27.3450113  17.3352753  26.2294083
  28.0920113  18.4842753  26.1914083  27.9800113  17.7322753  25.9994083
  30.9920113  19.9422753  37.4574083  30.9400113  19.6012753  36.6564083
  31.7290113  20.4092753  37.4354083  31.0930113  19.9612753  37.3354083
  30.5300113  23.6182753  33.6634083  31.1580113  23.0692753  33.4074083
  30.4690113  24.1832753  33.0014083  30.6140113  23.6212753  33.5274083
  24.9820113  23.6992753  19.6554083  25.6660113  23.1852753  19.4864083
  24.5650113  23.7452753  18.8904083  25.0210113  23.6302753  19.5174083
  19.6640113  24.8492753  30.9594083  19.3660113  25.4412753  31.5264083
  19.7190113  25.2912753  30.2104083  19.6280113  25.0022753  30.9324083
  17.6430113  23.7992753  34.3574083  16.8370113  23.5092753  34.5244083
  17.5540113  24.6672753  34.3634083  17.5110113  23.8842753  34.3824083
  27.0020113  13.9882753  33.3724083  27.7460113  14.4402753  33.3094083
  26.4360113  14.4582753  32.9034083  27.0290113  14.1252753  33.2944083
  22.1800113  21.2722753  30.4504083  22.6560113  21.6462753  31.0784083
  21.3570113  21.4062753  30.7094083  22.1290113  21.3472753  30.5814083
  18.8900113  16.8752753  33.1914083  19.0510113  16.1312753  33.6184083
  18.8450113  16.6262753  32.3564083  18.9070113  16.7282753  33.1314083
  21.4440113  28.6652753  25.6784083  21.9900113  29.3442753  25.7324083
  21.0940113  28.7472753  24.8834083  21.4730113  28.7782753  25.5684083
  28.2870113  11.9682753  31.0424083  28.0070113  12.7932753  30.9984083
  29.0030113  12.0212753  31.5384083  28.3520113  12.0982753  31.1094083
  20.6420113  12.6832753  33.0714083  21.3470113  13.0032753  32.6694083
  20.8830113  11.8762753  33.2984083  20.7810113  12.6112753  33.0454083
  19.6270113  26.8932753  29.0674083  19.0030113  27.4752753  28.8854083
  19.8750113  26.6072753  28.2814083  19.5710113  26.9372753  28.9244083
  23.9360113  23.5272753  36.0564083  24.6930113  23.8132753  35.7304083
  23.3890113  23.5792753  35.3784083  23.9670113  23.5772753  35.9074083
  27.8450113  26.0772753  34.5604083  28.1910113  26.3472753  35.3144083
  28.1390113  26.6592753  33.9804083  27.9400113  26.2032753  34.5864083
  29.7080113  18.2232753  19.8994083  30.0860113  18.9002753  19.4994083
  28.8660113  18.4472753  19.9304083  29.6390113  18.3562753  19.8444083
  21.2210113  21.6692753  18.9824083  20.4160113  21.4922753  18.6974083
  21.1880113  22.5202753  19.1744083  21.0970113  21.7682753  18.9694083
  17.1510113  17.7362753  29.1324083  17.5910113  17.6332753  28.3864083
  17.6960113  17.4232753  29.7374083  17.2960113  17.6752753  29.1114083
  25.1670113  16.8382753  34.7244083  24.5190113  17.3082753  35.0724083
  25.7320113  16.7492753  35.3834083  25.1550113  16.8942753  34.8734083
  24.8550113  18.3752753  31.0224083  25.1570113  18.7952753  31.7254083
  24.8910113  17.5352753  31.2544083  24.9050113  18.3132753  31.1604083
  22.2800113  28.5422753  34.9474083  22.7580113  27.9422753  34.5314083
  21.9290113  28.0992753  35.6124083  22.2990113  28.3882753  34.9844083
  27.4030113  17.8222753  23.2744083  27.6100113  17.6212753  24.0984083
  28.1590113  18.0902753  22.9324083  27.5450113  17.8322753  23.3454083
  20.6980113  12.7212753  29.1794083  19.8720113  12.5722753  29.4164083
  20.6580113  12.7562753  28.3084083  20.5700113  12.7042753  29.0854083
  28.4250113  13.9052753  24.7484083  27.7110113  13.4342753  24.9194083
  28.2630113  14.2462753  23.9624083  28.2960113  13.8862753  24.6574083
  28.8680113  21.8492753  23.1284083  29.3440113  21.1202753  23.0804083
  28.0470113  21.5632753  23.0524083  28.8170113  21.6992753  23.1094083
  22.3390113  23.7612753  33.9674083  21.5440113  23.6972753  34.3184083
  22.4100113  24.6082753  33.7724083  22.2320113  23.8762753  33.9904083
  13.2630113  13.1192753  35.2144083  13.1230113  13.9142753  34.8834083
  12.4770113  12.8762753  35.5034083  13.1260113  13.2012753  35.2084083
  18.1690113  29.9682753  29.2844083  18.1800113  30.0272753  30.1544083
  17.7440113  29.2212753  29.1344083  18.1080113  29.8662753  29.3904083
  16.3270113  15.8632753  22.4394083  16.4530113  15.5342753  21.6414083
  15.5150113  15.6142753  22.6384083  16.2260113  15.7782753  22.3514083
  25.0840113  23.0162753  25.4834083  25.1600113  23.3572753  26.2824083
  25.2530113  22.1692753  25.6044083  25.1200113  22.9412753  25.6194083
  22.6060113  22.2902753  25.0484083  22.3080113  21.9752753  25.8054083
  23.3010113  22.7632753  25.2834083  22.6650113  22.3132753  25.1954083
  22.8280113  26.4082753  33.0754083  23.5150113  26.2942753  33.6004083
  22.9620113  27.1992753  32.7314083  22.9490113  26.5082753  33.1024083
  31.0040113  19.0172753  34.8864083  30.1490113  18.8952753  35.0124083
  31.1570113  18.6222753  34.1234083  30.9000113  18.9402753  34.7924083
  25.5170113  19.6822753  33.4624083  25.2620113  18.9632753  33.8844083
  26.3380113  19.7982753  33.7324083  25.6010113  19.5932753  33.5644083
  14.9330113  29.4662753  34.7264083  14.2790113  28.8972753  34.8244083
  14.5580113  30.2392753  34.8774083  14.7810113  29.4962753  34.7634083
  23.4510113  20.8722753  36.6494083  23.7740113  21.5582753  36.2174083
  22.7470113  21.1952753  37.0514083  23.3940113  21.0212753  36.6444083
  26.5350113  29.2462753  27.5784083  26.0840113  29.8892753  27.9574083
  27.2430113  29.1672753  28.0834083  26.5730113  29.3292753  27.7094083
  23.2360113  24.3362753  30.5084083  22.5420113  24.7382753  30.8514083
  23.9130113  24.7692753  30.8474083  23.2330113  24.4592753  30.6094083
  28.6130113  26.9292753  37.0884083  29.3890113  26.5392753  37.1714083
  28.1440113  26.5932753  37.7434083  28.6580113  26.8222753  37.1974083
  16.3040113  17.8742753  32.8554083  16.6790113  18.4932753  32.3684083
  16.9780113  17.4002753  33.1404083  16.4590113  17.8962753  32.8254083
  14.0790113  16.3222753  32.1304083  14.1560113  16.1532753  31.2774083
  14.8250113  16.7282753  32.3274083  14.2000113  16.3572753  32.0334083
  29.6380113  18.9622753  22.5704083  29.7410113  18.9042753  21.7064083
  30.3790113  18.6302753  22.8884083  29.7630113  18.9052753  22.4894083
  16.6330113  13.7322753  34.5414083  16.5520113  12.8882753  34.7474083
  16.3190113  13.7762753  33.7284083  16.5750113  13.6142753  34.4514083
  23.5580113  25.9272753  23.6774083  23.3530113  26.7602753  23.5184083
  22.7830113  25.5452753  23.7994083  23.4130113  25.9942753  23.6724083
  28.7400113  19.1082753  31.9264083  28.7380113  18.2452753  32.0504083
  28.8070113  19.4322753  32.7334083  28.7500113  19.0282753  32.0634083
  13.4760113  21.5482753  32.3544083  13.7960113  21.7672753  31.5734083
  13.3760113  20.6832753  32.2994083  13.5080113  21.4532753  32.2314083
  14.9320113  17.4842753  18.9724083  14.2600113  17.4982753  19.5284083
  15.0270113  16.6362753  18.7884083  14.8470113  17.3612753  19.0274083
  24.6190113  13.9082753  35.7084083  24.7110113  14.6202753  36.2024083
  23.9820113  13.4632753  36.1054083  24.5380113  13.9472753  35.8404083
  23.6130113  14.0982753  26.5624083  22.9130113  14.6162753  26.5064083
  23.6510113  13.7182753  25.7784083  23.5150113  14.1192753  26.4384083
  18.9200113  26.1892753  20.0864083  19.3610113  26.2692753  20.8344083
  18.1150113  25.9732753  20.3444083  18.8660113  26.1692753  20.2354083
  27.2110113  14.6142753  29.3624083  28.0660113  14.7132753  29.5074083
  26.8420113  15.1672753  29.9274083  27.2830113  14.7112753  29.4674083
  18.2390113  20.8402753  33.7394083  17.8430113  21.6142753  33.8144083
  17.8330113  20.4672753  33.0634083  18.1210113  20.8992753  33.6504083
  27.5150113  19.8942753  27.8534083  28.1810113  20.4352753  28.0134083
  27.1700113  20.2052753  27.1144083  27.5620113  20.0202753  27.7684083
  27.8280113  27.9602753  23.6604083  27.6540113  27.3062753  24.2104083
  28.5410113  27.6892753  23.2374083  27.9080113  27.8232753  23.6794083
  16.2490113  25.2592753  20.6874083  16.0050113  24.9522753  21.4674083
  16.2160113  24.5562753  20.1714083  16.2080113  25.1102753  20.7264083
  19.0680113  23.5042753  19.4304083  18.2500113  23.2362753  19.5704083
  19.0400113  24.3562753  19.6154083  18.9430113  23.5912753  19.4784083
  18.6680113  13.8172753  31.1894083  17.8040113  13.9012753  31.2694083
  18.8880113  13.3032753  31.8584083  18.5730113  13.7542753  31.3004083
  30.6860113  12.4522753  32.5184083  30.6340113  12.4082753  33.3884083
  31.3730113  11.9492753  32.3284083  30.7800113  12.3722753  32.6184083
  22.7710113  14.5652753  29.5634083  22.0340113  14.1112753  29.6764083
  23.3420113  14.1632753  30.0864083  22.7460113  14.4382753  29.6574083
  25.0370113  29.6272753  35.5974083  24.2840113  29.6092753  35.1564083
  25.2050113  30.4792753  35.6814083  24.9510113  29.7502753  35.5444083
  20.2740113  18.8942753  34.7674083  19.9520113  18.3182753  34.1974083
  19.9150113  19.6492753  34.5214083  20.1740113  18.9202753  34.6474083
  21.0700113  12.1462753  19.3944083  21.1480113  12.3932753  18.5614083
  20.3270113  12.5232753  19.6524083  20.9720113  12.2382753  19.3094083
  30.3150113  24.0522753  30.8094083  30.2830113  23.1902753  30.6744083
  29.6220113  24.3542753  30.3754083  30.2080113  23.9692753  30.7254083
  18.7090113  29.2502753  35.0154083  18.7500113  29.3762753  35.8784083
  19.3600113  28.6902753  34.8594083  18.8110113  29.1862753  35.1204083
  28.4200113  27.3122753  29.6064083  28.9470113  27.2292753  28.9154083
  28.0290113  26.5342753  29.6604083  28.4400113  27.1852753  29.5124083
  15.8880113  13.9002753  31.8374083  15.5450113  13.1332753  31.6034083
  15.1930113  14.4242753  31.9014083  15.7350113  13.8642753  31.8124083
  24.9340113  12.7562753  28.8144083  25.6040113  13.3002753  28.9414083
  24.4310113  13.1802753  28.2414083  24.9590113  12.8992753  28.7484083
  16.3020113  27.6332753  36.3754083  16.8970113  28.0642753  36.8474083
  15.9380113  28.2572753  35.8864083  16.3360113  27.7892753  36.3724083
  24.2930113  18.5642753  26.3074083  24.8440113  17.9572753  26.6074083
  23.8680113  18.8272753  27.0224083  24.3120113  18.5132753  26.4564083
  14.5410113  17.2142753  25.7934083  14.1730113  17.5162753  26.5244083
  15.0750113  16.5852753  26.0774083  14.5650113  17.1662753  25.9434083
  14.2290113  25.6222753  33.3044083  13.6550113  26.0382753  33.8134083
  14.9620113  26.0872753  33.3994083  14.2530113  25.7522753  33.3934083
  26.2630113  20.3952753  22.8694083  26.3310113  19.5452753  23.0504083
  25.4400113  20.4812753  22.5914083  26.1510113  20.2822753  22.8554083
  16.0150113  28.8892753  22.0794083  15.8700113  29.0452753  21.2334083
  16.8810113  28.9682753  22.1574083  16.1220113  28.9242753  21.9664083
  20.1820113  21.2862753  21.8074083  20.2820113  21.4252753  20.9524083
  21.0000113  21.2262753  22.1034083  20.3170113  21.2972753  21.7244083
  29.3420113  29.3502753  19.2874083  29.9790113  29.2162753  19.8684083
  29.0010113  28.5562753  19.1704083  29.3860113  29.2132753  19.3554083
  29.5370113  21.7682753  36.0204083  30.1710113  21.5982753  36.5944083
  29.9540113  22.1712753  35.3684083  29.6920113  21.8032753  36.0094083
  25.4170113  25.6152753  21.6094083  25.1660113  25.4872753  22.4354083
  25.1000113  24.9202753  21.1884083  25.3330113  25.4942753  21.6694083
  30.1620113  16.3322753  36.7584083  29.9660113  16.9762753  37.3134083
  29.4400113  15.8422753  36.7504083  30.0270113  16.3552753  36.8394083
  30.0610113  17.2732753  29.7294083  29.2280113  17.5232753  29.6574083
  30.0050113  16.4332753  29.9584083  29.9300113  17.1862753  29.7524083
  19.3210113  14.2612753  34.9234083  19.5550113  13.6852753  34.3104083
  18.4790113  14.0802753  35.0644083  19.2310113  14.1492753  34.8534083
  26.9480113  21.8792753  37.3754083  27.8190113  21.8432753  37.3394083
  26.7290113  22.2992753  36.6434083  27.0450113  21.9352753  37.2624083
  16.7020113  27.7042753  28.5564083  16.6230113  26.8942753  28.2404083
  16.2580113  28.1912753  27.9844083  16.6250113  27.6562753  28.4254083
  22.3030113  23.8232753  21.0394083  23.0200113  23.4762753  20.6834083
  22.2690113  24.6232753  20.6914083  22.4040113  23.8902753  20.9354083
  14.2740113  29.9482753  32.1374083  14.7670113  29.8922753  32.8554083
  14.4620113  29.2152753  31.7024083  14.3750113  29.8312753  32.1794083
  23.7120113  12.4642753   5.2781673  23.4670113  12.9522753   4.5981673
  24.5750113  12.3912753   5.1781673  23.8030113  12.5252753   5.1631673
  23.5210113  19.3802753   9.9491673  22.9970113  19.9762753  10.3121673
  23.9180113  19.0122753  10.6331673  23.5020113  19.4142753  10.1041673
  13.3900113  23.5202753   5.4051673  12.9490113  23.6382753   6.1481673
  13.1070113  22.7452753   5.1201673  13.2830113  23.4232753   5.4731673
  29.6650113  26.8212753   2.9201673  30.3660113  26.3022753   2.9161673
  29.0780113  26.3762753   2.4511673  29.6820113  26.6782753   2.8501673
  26.1920113  20.4472753   6.6251673  26.2720113  20.4512753   5.7561673
  25.6080113  19.8152753   6.7741673  26.1170113  20.3542753   6.5191673
  15.8990113  24.2162753   4.4841673  16.5070113  24.0462753   5.0871673
  15.1480113  24.0762753   4.9051673  15.8780113  24.1702753   4.6351673
  20.1810113  13.5512753   4.4331673  20.1110113  14.2282753   3.8871673
  20.9220113  13.1632753   4.1841673  20.2800113  13.5942753   4.3151673
  13.3300113  26.2552753  11.6601673  13.4590113  25.9752753  12.4761673
  12.7200113  25.7142753  11.3511673  13.2590113  26.1342753  11.7351673
  19.9040113  23.7802753  16.7271673  19.6680113  23.7772753  17.5671673
  19.1560113  23.6322753  16.3031673  19.7580113  23.7572753  16.7881673
  14.7760113  20.7762753   5.8621673  14.3140113  20.3842753   5.2351673
  15.4760113  20.2632753   5.9541673  14.8110113  20.6432753   5.7831673
  19.2840113  16.3862753  11.2091673  19.9620113  16.4042753  10.6601673
  19.2390113  15.5502753  11.4541673  19.3770113  16.2652753  11.1641673
  19.8860113  26.9722753  13.9901673  20.0240113  27.7322753  13.5831673
  20.6770113  26.6072753  14.0171673  20.0230113  27.0312753  13.9341673
  16.7770113  18.8762753   5.8851673  17.5940113  18.6892753   6.1281673
  16.3000113  18.2622753   6.2811673  16.8270113  18.7582753   5.9801673
  20.9810113  24.8572753   8.4951673  21.3290113  24.0582753   8.5251673
  21.6460113  25.3612753   8.2401673  21.1310113  24.8132753   8.4621673
  21.0380113  24.3062753   4.7061673  21.3690113  23.6622753   5.1921673
  21.2780113  24.0952753   3.8951673  21.1220113  24.1802753   4.6581673
  23.0060113  18.4372753  16.0451673  22.1580113  18.3382753  15.8671673
  23.0350113  19.1822753  16.4991673  22.8850113  18.5332753  16.0861673
  17.3740113  13.9702753   5.1511673  17.0780113  14.4712753   4.5011673
  18.2410113  14.0482753   5.0941673  17.4580113  14.0562753   5.0471673
  27.5640113  11.3972753  15.1591673  27.4060113  12.1662753  14.7771673
  26.7920113  11.1772753  15.5031673  27.4260113  11.4782753  15.1541673
  20.3530113  13.1122753   7.3741673  20.4260113  13.9722753   7.5031673
  20.3150113  13.0372753   6.5061673  20.3580113  13.2282753   7.2651673
  13.2320113  18.5372753   8.8751673  12.9760113  19.3682753   8.8001673
  12.5680113  18.1542753   9.2921673  13.0960113  18.6032753   8.9261673
  13.1420113  28.2472753   6.7751673  12.5500113  28.8052753   6.4621673
  13.5680113  27.9782753   6.0631673  13.1180113  28.2892753   6.6241673
  18.9820113  26.0912753   4.2551673  18.4030113  25.8162753   4.8471673
  19.6060113  25.4822753   4.2801673  18.9890113  25.9612753   4.3461673
  25.1250113  28.3792753   1.7771673  25.8520113  28.8512753   1.8791673
  25.3540113  27.5852753   2.0571673  25.2670113  28.3322753   1.8341673
  23.2930113  28.7712753   3.7671673  23.5070113  29.2982753   4.4291673
  24.0600113  28.5972753   3.3881673  23.4380113  28.8232753   3.8091673
  16.2610113  13.3542753   9.3661673  15.7400113  12.7262753   9.0581673
  16.8520113  12.9172753   9.8371673  16.2720113  13.1962753   9.3901673
  19.5670113  15.4872753  18.6641673  19.6840113  15.0332753  17.9281673
  19.8550113  16.2852753  18.4611673  19.6270113  15.5382753  18.5251673
  14.6870113  26.9172753   4.7061673  15.3430113  26.3422753   4.7211673
  15.0760113  27.6662753   4.4851673  14.8420113  26.9422753   4.6761673
  30.4200113  16.0112753   5.9681673  30.0740113  16.6892753   6.3941673
  29.7840113  15.4132753   5.9841673  30.2750113  16.0232753   6.0331673
  25.7320113  28.7812753  12.0721673  26.4760113  29.2372753  12.0621673
  25.6110113  28.5672753  11.2351673  25.8240113  28.8172753  11.9471673
  15.3000113  15.0842753  17.6481673  14.5220113  14.6942753  17.5761673
  15.7910113  14.6722753  17.0571673  15.2570113  14.9652753  17.5501673
  15.5050113  25.4042753   8.2061673  15.9280113  25.0482753   7.5321673
  15.8290113  24.9822753   8.8981673  15.6150113  25.2892753   8.2091673
  18.7360113  28.2562753   7.5021673  19.5800113  28.3602753   7.3071673
  18.4390113  29.0742753   7.5701673  18.8170113  28.3922753   7.4831673
  21.9490113  12.7272753  16.8161673  22.1270113  11.9182753  16.5411673
  21.8060113  13.1682753  16.0771673  21.9540113  12.6732753  16.6661673
  22.5430113  17.6532753   5.5891673  22.8300113  17.4212753   4.7991673
  23.2750113  17.7322753   6.0581673  22.6930113  17.6302753   5.5421673
  27.3060113  29.9662753   2.1771673  27.9710113  29.8182753   1.6321673
  27.6660113  29.8832753   2.9671673  27.4580113  29.9322753   2.2131673
  17.7340113  29.4752753  13.2421673  18.0260113  29.4082753  14.0621673
  17.1080113  28.8702753  13.1971673  17.6850113  29.3762753  13.3571673
  30.0950113  14.3342753  11.3371673  30.8520113  14.4062753  10.9091673
  30.1580113  13.5612753  11.7361673  30.2160113  14.2312753  11.3321673
  12.6480113  15.6322753  15.2341673  12.6440113  16.2192753  15.8801673
  13.2420113  15.9442753  14.6771673  12.7350113  15.7652753  15.2471673
  24.9860113  25.9662753  15.7761673  24.9520113  26.3482753  16.5601673
  25.8400113  25.9242753  15.6051673  25.1070113  26.0162753  15.8671673
  13.5850113  15.2272753   4.1491673  13.4710113  14.3632753   4.1801673
  13.1100113  15.5212753   4.8191673  13.4980113  15.1432753   4.2521673
  15.7270113  27.6372753  12.3641673  15.0290113  27.1292753  12.4901673
  15.9870113  27.4322753  11.5561673  15.6620113  27.5322753  12.2631673
  22.8890113  16.4352753   2.8941673  22.3810113  15.7732753   2.6401673
  22.9410113  16.9392753   2.1841673  22.8220113  16.4122753   2.7521673
  23.4380113  29.1302753  13.2741673  24.2060113  29.0502753  12.8681673
  22.8550113  29.0092753  12.6361673  23.4650113  29.1002753  13.1201673
  22.8890113  13.3762753   2.7851673  22.4340113  12.9742753   2.1591673
  23.6620113  13.5312753   2.4101673  22.9360113  13.3402753   2.6371673
  29.7150113  29.7332753   6.1751673  29.2600113  30.4502753   6.3761673
  29.1010113  29.1622753   5.9331673  29.5570113  29.7552753   6.1691673
  21.4870113  15.7432753   7.3071673  21.5610113  16.3112753   6.6491673
  21.6080113  16.2352753   8.0171673  21.5150113  15.9002753   7.3151673
  26.7120113  25.5782753   5.7191673  27.4130113  25.0962753   5.9081673
  26.0520113  25.0092753   5.7641673  26.7180113  25.4232753   5.7531673
  17.0880113  26.4882753  14.9311673  17.9290113  26.5512753  14.7091673
  17.0510113  26.8852753  15.7071673  17.2070113  26.5562753  15.0131673
  16.0950113  11.5662753   5.6551673  16.6310113  12.2542753   5.6451673
  16.0980113  11.2922753   4.8271673  16.1740113  11.6272753   5.5311673
  19.0510113  21.9992753   9.6801673  19.2230113  21.7892753  10.5091673
  18.3960113  21.4652753   9.4641673  18.9800113  21.8892753   9.7711673
  25.2790113  15.9132753  13.1951673  25.1840113  16.2322753  14.0011673
  24.6860113  15.2742753  13.1571673  25.1770113  15.8652753  13.3091673
  19.8010113  21.9372753  12.2701673  19.8540113  22.7842753  12.4721673
  19.5160113  21.5672753  13.0071673  19.7670113  22.0072753  12.4081673
  25.9780113  22.6322753  11.4001673  25.4640113  22.2202753  11.9711673
  25.8520113  23.4762753  11.5811673  25.8840113  22.6962753  11.5111673
  26.5350113  11.8572753   6.0311673  26.5840113  11.5392753   6.8421673
  26.8580113  11.2132753   5.5381673  26.5900113  11.7152753   6.0781673
  12.6220113  26.3082753  18.4811673  13.3780113  26.6572753  18.7391673
  12.7990113  25.4552753  18.4241673  12.7600113  26.2332753  18.5111673
  28.9990113  16.0932753  14.3391673  29.7710113  15.8682753  14.6761673
  28.5240113  16.3102753  15.0391673  29.0430113  16.0922753  14.4921673
  16.5430113  15.3762753   7.3091673  16.8150113  14.9462753   6.6011673
  16.3670113  14.7402753   7.8801673  16.5570113  15.2192753   7.2891673
  16.3670113  22.8032753   6.8581673  17.2180113  22.7232753   6.6851673
  16.0100113  22.1212753   6.4461673  16.4400113  22.6902753   6.7711673
  15.1340113  29.5282753   8.0951673  14.4610113  29.0302753   7.8501673
  15.5370113  29.7132753   7.3441673  15.0940113  29.4822753   7.9481673
  14.6840113  16.4782753  10.3911673  15.5270113  16.6982753  10.3481673
  14.2950113  17.0512753   9.8601673  14.7510113  16.5952753  10.3061673
  31.4650113  27.5802753  15.7811673  30.7830113  27.8902753  15.3341673
  31.0960113  27.1222753  16.4261673  31.3090113  27.5582753  15.8101673
  18.7350113  22.8102753   5.0931673  19.4480113  23.3052753   5.1831673
  18.9570113  22.2432753   4.4671673  18.8730113  22.7992753   5.0141673
  12.8910113  24.4532753   8.4131673  12.2240113  24.9412753   8.6891673
  13.5710113  24.9982753   8.4421673  12.8930113  24.6052753   8.4581673
  20.5380113  18.1632753  18.5091673  20.0540113  18.7402753  18.9511673
  20.5100113  18.4582753  17.6881673  20.4620113  18.2922753  18.4531673
  31.6360113  18.8472753  13.1211673  31.8510113  18.0472753  12.8451673
  30.7860113  18.9072753  12.9321673  31.5420113  18.7382753  13.0521673
  12.9570113  21.1372753   3.5161673  12.7720113  20.2982753   3.6681673
  13.6160113  21.1012753   2.9461673  13.0270113  21.0082753   3.4541673
  29.3150113  14.0272753   2.8441673  30.0610113  13.6202753   3.0431673
  29.5780113  14.7422753   2.4191673  29.4640113  14.0732753   2.8111673
  23.2580113  26.5132753   7.4201673  22.7350113  27.1472753   7.1271673
  23.5680113  26.1492753   6.6911673  23.2260113  26.5532753   7.2691673
  13.1290113  25.3012753   3.0911673  13.6810113  25.8702753   3.4551673
  12.8970113  24.7862753   3.7561673  13.1760113  25.3092753   3.2431673
  17.3330113  24.3012753  10.1801673  17.8000113  24.5902753  10.8581673
  17.9050113  23.8232753   9.7261673  17.4870113  24.2732753  10.2131673
  25.7690113  16.3152753   7.9171673  26.1130113  16.4672753   8.7041673
  25.3160113  15.5772753   8.0301673  25.7530113  16.2282753   8.0501673
  13.8990113  21.9712753   8.7241673  14.3300113  21.8422753   7.9771673
  13.6940113  22.8192753   8.6981673  13.9320113  22.0772753   8.6101673
  29.2990113  27.9622753  13.8711673  28.6280113  28.4762753  14.0891673
  29.3620113  28.0622753  13.0071673  29.2090113  28.0532753  13.7761673
  17.9830113  25.4872753   7.0061673  18.1090113  26.3302753   7.1931673
  18.6510113  25.0882753   7.4021673  18.1010113  25.5532753   7.0921673
  16.1130113  18.9702753  16.8681673  15.5770113  18.4642753  17.3361673
  16.1330113  18.5802753  16.0881673  16.0360113  18.8372753  16.8221673
  16.7650113  20.1972753   8.6071673  15.9840113  20.1382753   8.2241673
  16.8370113  19.4452753   9.0441673  16.6600113  20.0782753   8.6151673
  17.1950113  19.9342753  12.0751673  17.2200113  19.2592753  11.5241673
  16.5490113  20.4302753  11.7631673  17.1040113  19.9072753  11.9481673
  27.0900113  17.6472753  10.4711673  26.4280113  17.9752753  10.9341673
  27.2770113  18.2812753   9.9021673  27.0200113  17.7892753  10.4551673
  21.2950113  28.7112753  11.4671673  21.0180113  28.0702753  10.9441673
  21.0870113  29.4372753  11.0291673  21.2240113  28.7242753  11.3251673
  23.7350113  13.5532753  13.9001673  23.8840113  12.7282753  13.6571673
  24.1140113  13.6082753  14.6841673  23.8130113  13.4392753  13.9801673
  25.2830113  15.6162753   3.9821673  25.7730113  16.3332753   3.9051673
  24.4930113  15.8772753   3.7191673  25.2390113  15.7602753   3.9321673
  14.9940113  21.2892753  17.6341673  14.9570113  21.7902753  16.9201673
  15.3250113  20.5372753  17.3391673  15.0370113  21.2512753  17.4851673
  26.5970113  23.4942753  15.8921673  27.0810113  24.2122753  15.9901673
  26.9910113  23.0672753  15.2411673  26.7270113  23.5372753  15.8101673
  20.8930113  26.3392753  17.0691673  21.2470113  26.1612753  17.8461673
  20.4570113  25.6102753  16.8701673  20.8810113  26.2052753  17.1551673
  21.8650113  17.0862753   9.7071673  22.3450113  17.7852753   9.9151673
  22.2380113  16.4392753  10.1581673  21.9910113  17.0942753   9.8041673
  29.0260113  24.1252753   5.9621673  29.3820113  23.7752753   6.6771673
  29.0180113  23.4642753   5.3921673  29.0780113  23.9752753   5.9831673
  25.0710113  27.1912753   9.8061673  24.4680113  26.8952753   9.2491673
  25.6160113  27.6432753   9.2971673  25.0620113  27.2142753   9.6481673
  25.0840113  24.0422753   9.2061673  24.2870113  24.2662753   9.4801673
  25.3420113  23.4482753   9.7911673  25.0040113  23.9872753   9.3331673
  18.9760113  28.8542753   3.6541673  18.8290113  28.0782753   4.0251673
  19.6650113  28.7072753   3.1391673  19.0560113  28.7172753   3.6331673
  28.3440113  22.0402753  14.0521673  28.3990113  22.1652753  13.1901673
  29.0970113  22.3602753  14.3541673  28.4630113  22.1052753  13.9691673
  24.5350113  27.3892753  18.3291673  24.6990113  27.6722753  19.1381673
  24.7980113  28.0502753  17.8241673  24.5980113  27.5292753  18.3741673
  29.3760113  12.3382753  17.0391673  28.7390113  11.9382753  16.5971673
  29.4020113  11.9072753  17.7971673  29.2860113  12.2162753  17.0851673
  15.7690113  20.9042753   2.8851673  16.0930113  20.1252753   2.6631673
  16.4150113  21.2722753   3.3401673  15.9120113  20.8432753   2.9191673
  24.0750113  21.8462753  13.6521673  23.9200113  22.4562753  14.2561673
  24.6090113  21.2882753  14.0581673  24.1310113  21.8542753  13.8011673
  12.7660113  12.5652753   3.8531673  12.8950113  11.8572753   3.3611673
  12.3990113  12.2472753   4.5781673  12.7310113  12.4132753   3.8881673
  22.4590113  20.2462753   4.3101673  22.5180113  20.8962753   4.8891673
  22.2700113  19.5502753   4.8011673  22.4400113  20.2392753   4.4681673
  27.6850113  24.5752753  10.1791673  27.2060113  24.8732753   9.5131673
  27.3290113  23.7992753  10.3571673  27.5620113  24.5042753  10.1071673
  21.6820113  22.2932753   8.7411673  20.8350113  22.0992753   8.8221673
  22.0060113  22.1282753   9.5341673  21.6040113  22.2402753   8.8701673
  15.5300113  21.9862753  11.0571673  16.2520113  22.4742753  11.0201673
  15.2600113  21.9562753  10.2281673  15.5970113  22.0542753  10.9291673
  18.7600113  17.1572753   7.7921673  19.6060113  16.9672753   7.8901673
  18.3900113  16.3802753   7.6541673  18.8300113  17.0142753   7.7861673
  31.3770113  28.7412753   2.1191673  32.0710113  28.2742753   1.8711673
  30.8380113  28.1432753   2.4561673  31.4000113  28.5832753   2.1321673
  13.5810113  18.4952753   4.4471673  14.0700113  18.2032753   5.1081673
  13.7100113  17.9022753   3.8201673  13.6720113  18.3642753   4.4521673
  28.6160113  21.5172753  11.2981673  28.6090113  20.7412753  11.6961673
  27.7750113  21.7512753  11.2911673  28.4910113  21.4372753  11.3561673
  14.9250113  23.0382753  15.3351673  14.5040113  22.5202753  14.7741673
  14.5730113  23.8242753  15.1921673  14.8110113  23.0782753  15.2311673
  29.8720113  21.5882753   8.7351673  29.5860113  21.9892753   9.4551673
  30.7320113  21.5262753   8.8621673  29.9570113  21.6382753   8.8601673
  19.5610113  18.3902753   2.6431673  19.8330113  19.2162753   2.7101673
  18.6980113  18.4652753   2.5471673  19.4740113  18.5232753   2.6381673
  27.5340113  15.5122753  17.2751673  27.0090113  15.9712753  17.7991673
  27.1730113  14.7172753  17.2691673  27.4030113  15.4622753  17.3511673
  13.0410113  14.3602753   9.1791673  13.0850113  14.7042753   8.3781673
  13.7960113  14.5972753   9.5461673  13.1590113  14.4462753   9.1151673
  31.0030113  27.2212753   9.2641673  31.2930113  27.4782753   8.4831673
  31.6980113  27.3172753   9.7831673  31.1490113  27.2732753   9.2251673
  26.0260113  19.0812753  17.3511673  26.0990113  19.1852753  18.2141673
  25.3920113  19.6392753  17.1301673  25.9430113  19.1792753  17.4461673
  28.2940113  19.4002753  15.7161673  28.6130113  20.1862753  15.9191673
  27.9240113  19.1302753  16.4591673  28.2870113  19.4762753  15.8561673
  28.0900113  17.6582753   6.9051673  27.3450113  17.3352753   7.2231673
  28.0920113  18.4842753   7.1851673  27.9800113  17.7322753   6.9931673
  30.9920113  19.9422753  18.4511673  30.9400113  19.6012753  17.6501673
  31.7290113  20.4092753  18.4291673  31.0930113  19.9612753  18.3291673
  30.5300113  23.6182753  14.6571673  31.1580113  23.0692753  14.4011673
  30.4690113  24.1832753  13.9951673  30.6140113  23.6212753  14.5211673
  19.6640113  24.8492753  11.9531673  19.3660113  25.4412753  12.5201673
  19.7190113  25.2912753  11.2041673  19.6280113  25.0022753  11.9261673
  17.6430113  23.7992753  15.3511673  16.8370113  23.5092753  15.5181673
  17.5540113  24.6672753  15.3571673  17.5110113  23.8842753  15.3761673
  27.0020113  13.9882753  14.3661673  27.7460113  14.4402753  14.3031673
  26.4360113  14.4582753  13.8971673  27.0290113  14.1252753  14.2881673
  22.1800113  21.2722753  11.4441673  22.6560113  21.6462753  12.0721673
  21.3570113  21.4062753  11.7031673  22.1290113  21.3472753  11.5751673
  18.8900113  16.8752753  14.1851673  19.0510113  16.1312753  14.6121673
  18.8450113  16.6262753  13.3501673  18.9070113  16.7282753  14.1251673
  21.4440113  28.6652753   6.6721673  21.9900113  29.3442753   6.7261673
  21.0940113  28.7472753   5.8771673  21.4730113  28.7782753   6.5621673
  28.2870113  11.9682753  12.0361673  28.0070113  12.7932753  11.9921673
  29.0030113  12.0212753  12.5321673  28.3520113  12.0982753  12.1031673
  20.6420113  12.6832753  14.0651673  21.3470113  13.0032753  13.6631673
  20.8830113  11.8762753  14.2921673  20.7810113  12.6112753  14.0391673
  19.6270113  26.8932753  10.0611673  19.0030113  27.4752753   9.8791673
  19.8750113  26.6072753   9.2751673  19.5710113  26.9372753   9.9181673
  23.9360113  23.5272753  17.0501673  24.6930113  23.8132753  16.7241673
  23.3890113  23.5792753  16.3721673  23.9670113  23.5772753  16.9011673
  27.8450113  26.0772753  15.5541673  28.1910113  26.3472753  16.3081673
  28.1390113  26.6592753  14.9741673  27.9400113  26.2032753  15.5801673
  17.1510113  17.7362753  10.1261673  17.5910113  17.6332753   9.3801673
  17.6960113  17.4232753  10.7311673  17.2960113  17.6752753  10.1051673
  25.1670113  16.8382753  15.7181673  24.5190113  17.3082753  16.0661673
  25.7320113  16.7492753  16.3771673  25.1550113  16.8942753  15.8671673
  24.8550113  18.3752753  12.0161673  25.1570113  18.7952753  12.7191673
  24.8910113  17.5352753  12.2481673  24.9050113  18.3132753  12.1541673
  22.2800113  28.5422753  15.9411673  22.7580113  27.9422753  15.5251673
  21.9290113  28.0992753  16.6061673  22.2990113  28.3882753  15.9781673
  27.4030113  17.8222753   4.2681673  27.6100113  17.6212753   5.0921673
  28.1590113  18.0902753   3.9261673  27.5450113  17.8322753   4.3391673
  20.6980113  12.7212753  10.1731673  19.8720113  12.5722753  10.4101673
  20.6580113  12.7562753   9.3021673  20.5700113  12.7042753  10.0791673
  28.4250113  13.9052753   5.7421673  27.7110113  13.4342753   5.9131673
  28.2630113  14.2462753   4.9561673  28.2960113  13.8862753   5.6511673
  28.8680113  21.8492753   4.1221673  29.3440113  21.1202753   4.0741673
  28.0470113  21.5632753   4.0461673  28.8170113  21.6992753   4.1031673
  22.3390113  23.7612753  14.9611673  21.5440113  23.6972753  15.3121673
  22.4100113  24.6082753  14.7661673  22.2320113  23.8762753  14.9841673
  13.2630113  13.1192753  16.2081673  13.1230113  13.9142753  15.8771673
  12.4770113  12.8762753  16.4971673  13.1260113  13.2012753  16.2021673
  18.1690113  29.9682753  10.2781673  18.1800113  30.0272753  11.1481673
  17.7440113  29.2212753  10.1281673  18.1080113  29.8662753  10.3841673
  16.3270113  15.8632753   3.4331673  16.4530113  15.5342753   2.6351673
  15.5150113  15.6142753   3.6321673  16.2260113  15.7782753   3.3451673
  25.0840113  23.0162753   6.4771673  25.1600113  23.3572753   7.2761673
  25.2530113  22.1692753   6.5981673  25.1200113  22.9412753   6.6131673
  22.6060113  22.2902753   6.0421673  22.3080113  21.9752753   6.7991673
  23.3010113  22.7632753   6.2771673  22.6650113  22.3132753   6.1891673
  22.8280113  26.4082753  14.0691673  23.5150113  26.2942753  14.5941673
  22.9620113  27.1992753  13.7251673  22.9490113  26.5082753  14.0961673
  31.0040113  19.0172753  15.8801673  30.1490113  18.8952753  16.0061673
  31.1570113  18.6222753  15.1171673  30.9000113  18.9402753  15.7861673
  25.5170113  19.6822753  14.4561673  25.2620113  18.9632753  14.8781673
  26.3380113  19.7982753  14.7261673  25.6010113  19.5932753  14.5581673
  14.9330113  29.4662753  15.7201673  14.2790113  28.8972753  15.8181673
  14.5580113  30.2392753  15.8711673  14.7810113  29.4962753  15.7571673
  23.4510113  20.8722753  17.6431673  23.7740113  21.5582753  17.2111673
  22.7470113  21.1952753  18.0451673  23.3940113  21.0212753  17.6381673
  26.5350113  29.2462753   8.5721673  26.0840113  29.8892753   8.9511673
  27.2430113  29.1672753   9.0771673  26.5730113  29.3292753   8.7031673
  23.2360113  24.3362753  11.5021673  22.5420113  24.7382753  11.8451673
  23.9130113  24.7692753  11.8411673  23.2330113  24.4592753  11.6031673
  28.6130113  26.9292753  18.0821673  29.3890113  26.5392753  18.1651673
  28.1440113  26.5932753  18.7371673  28.6580113  26.8222753  18.1911673
  16.3040113  17.8742753  13.8491673  16.6790113  18.4932753  13.3621673
  16.9780113  17.4002753  14.1341673  16.4590113  17.8962753  13.8191673
  14.0790113  16.3222753  13.1241673  14.1560113  16.1532753  12.2711673
  14.8250113  16.7282753  13.3211673  14.2000113  16.3572753  13.0271673
  29.6380113  18.9622753   3.5641673  29.7410113  18.9042753   2.7001673
  30.3790113  18.6302753   3.8821673  29.7630113  18.9052753   3.4831673
  16.6330113  13.7322753  15.5351673  16.5520113  12.8882753  15.7411673
  16.3190113  13.7762753  14.7221673  16.5750113  13.6142753  15.4451673
  23.5580113  25.9272753   4.6711673  23.3530113  26.7602753   4.5121673
  22.7830113  25.5452753   4.7931673  23.4130113  25.9942753   4.6661673
  28.7400113  19.1082753  12.9201673  28.7380113  18.2452753  13.0441673
  28.8070113  19.4322753  13.7271673  28.7500113  19.0282753  13.0571673
  13.4760113  21.5482753  13.3481673  13.7960113  21.7672753  12.5671673
  13.3760113  20.6832753  13.2931673  13.5080113  21.4532753  13.2251673
  24.6190113  13.9082753  16.7021673  24.7110113  14.6202753  17.1961673
  23.9820113  13.4632753  17.0991673  24.5380113  13.9472753  16.8341673
  23.6130113  14.0982753   7.5561673  22.9130113  14.6162753   7.5001673
  23.6510113  13.7182753   6.7721673  23.5150113  14.1192753   7.4321673
  27.2110113  14.6142753  10.3561673  28.0660113  14.7132753  10.5011673
  26.8420113  15.1672753  10.9211673  27.2830113  14.7112753  10.4611673
  18.2390113  20.8402753  14.7331673  17.8430113  21.6142753  14.8081673
  17.8330113  20.4672753  14.0571673  18.1210113  20.8992753  14.6441673
  27.5150113  19.8942753   8.8471673  28.1810113  20.4352753   9.0071673
  27.1700113  20.2052753   8.1081673  27.5620113  20.0202753   8.7621673
  27.8280113  27.9602753   4.6541673  27.6540113  27.3062753   5.2041673
  28.5410113  27.6892753   4.2311673  27.9080113  27.8232753   4.6731673
  18.6680113  13.8172753  12.1831673  17.8040113  13.9012753  12.2631673
  18.8880113  13.3032753  12.8521673  18.5730113  13.7542753  12.2941673
  30.6860113  12.4522753  13.5121673  30.6340113  12.4082753  14.3821673
  31.3730113  11.9492753  13.3221673  30.7800113  12.3722753  13.6121673
  22.7710113  14.5652753  10.5571673  22.0340113  14.1112753  10.6701673
  23.3420113  14.1632753  11.0801673  22.7460113  14.4382753  10.6511673
  25.5030113  25.4132753  12.3451673  25.7090113  25.7142753  13.1371673
  25.4420113  26.1352753  11.8601673  25.5240113  25.5642753  12.3901673
  25.0370113  29.6272753  16.5911673  24.2840113  29.6092753  16.1501673
  25.2050113  30.4792753  16.6751673  24.9510113  29.7502753  16.5381673
  20.2740113  18.8942753  15.7611673  19.9520113  18.3182753  15.1911673
  19.9150113  19.6492753  15.5151673  20.1740113  18.9202753  15.6411673
  30.3150113  24.0522753  11.8031673  30.2830113  23.1902753  11.6681673
  29.6220113  24.3542753  11.3691673  30.2080113  23.9692753  11.7191673
  18.7090113  29.2502753  16.0091673  18.7500113  29.3762753  16.8721673
  19.3600113  28.6902753  15.8531673  18.8110113  29.1862753  16.1141673
  28.4200113  27.3122753  10.6001673  28.9470113  27.2292753   9.9091673
  28.0290113  26.5342753  10.6541673  28.4400113  27.1852753  10.5061673
  15.8880113  13.9002753  12.8311673  15.5450113  13.1332753  12.5971673
  15.1930113  14.4242753  12.8951673  15.7350113  13.8642753  12.8061673
  24.9340113  12.7562753   9.8081673  25.6040113  13.3002753   9.9351673
  24.4310113  13.1802753   9.2351673  24.9590113  12.8992753   9.7421673
  16.3020113  27.6332753  17.3691673  16.8970113  28.0642753  17.8411673
  15.9380113  28.2572753  16.8801673  16.3360113  27.7892753  17.3661673
  24.2930113  18.5642753   7.3011673  24.8440113  17.9572753   7.6011673
  23.8680113  18.8272753   8.0161673  24.3120113  18.5132753   7.4501673
  14.5410113  17.2142753   6.7871673  14.1730113  17.5162753   7.5181673
  15.0750113  16.5852753   7.0711673  14.5650113  17.1662753   6.9371673
  14.2290113  25.6222753  14.2981673  13.6550113  26.0382753  14.8071673
  14.9620113  26.0872753  14.3931673  14.2530113  25.7522753  14.3871673
  26.2630113  20.3952753   3.8631673  26.3310113  19.5452753   4.0441673
  25.4400113  20.4812753   3.5851673  26.1510113  20.2822753   3.8491673
  16.0150113  28.8892753   3.0731673  15.8700113  29.0452753   2.2271673
  16.8810113  28.9682753   3.1511673  16.1220113  28.9242753   2.9601673
  20.1820113  21.2862753   2.8011673  20.2820113  21.4252753   1.9461673
  21.0000113  21.2262753   3.0971673  20.3170113  21.2972753   2.7181673
  29.5370113  21.7682753  17.0141673  30.1710113  21.5982753  17.5881673
  29.9540113  22.1712753  16.3621673  29.6920113  21.8032753  17.0031673
  25.4170113  25.6152753   2.6031673  25.1660113  25.4872753   3.4291673
  25.1000113  24.9202753   2.1821673  25.3330113  25.4942753   2.6631673
  30.1620113  16.3322753  17.7521673  29.9660113  16.9762753  18.3071673
  29.4400113  15.8422753  17.7441673  30.0270113  16.3552753  17.8331673
  30.0610113  17.2732753  10.7231673  29.2280113  17.5232753  10.6511673
  30.0050113  16.4332753  10.9521673  29.9300113  17.1862753  10.7461673
  19.3210113  14.2612753  15.9171673  19.5550113  13.6852753  15.3041673
  18.4790113  14.0802753  16.0581673  19.2310113  14.1492753  15.8471673
  26.9480113  21.8792753  18.3691673  27.8190113  21.8432753  18.3331673
  26.7290113  22.2992753  17.6371673  27.0450113  21.9352753  18.2561673
  16.7020113  27.7042753   9.5501673  16.6230113  26.8942753   9.2341673
  16.2580113  28.1912753   8.9781673  16.6250113  27.6562753   9.4191673
  22.3030113  23.8232753   2.0331673  23.0200113  23.4762753   1.6771673
  22.2690113  24.6232753   1.6851673  22.4040113  23.8902753   1.9291673
  14.2740113  29.9482753  13.1311673  14.7670113  29.8922753  13.8491673
  14.4620113  29.2152753  12.6961673  14.3750113  29.8312753  13.1731673
  13.3900113   5.0421673  81.4301313  12.9490113   5.1601673  82.1731313
  13.1070113   4.2671673  81.1451313  13.2830113   4.9451673  81.4981313
  29.6650113   8.3431673  78.9451313  30.3660113   7.8241673  78.9411313
  29.0780113   7.8981673  78.4761313  29.6820113   8.2001673  78.8751313
  16.2720113   4.0971673  76.6091313  15.8800113   3.7261673  75.9231313
  16.1920113   3.4991673  77.2381313  16.2020113   3.9541673  76.6001313
  15.8990113   5.7381673  80.5091313  16.5070113   5.5681673  81.1121313
  15.1480113   5.5981673  80.9301313  15.8780113   5.6921673  80.6601313
  14.7900113   8.8291673  76.5861313  15.2570113   8.9131673  75.8541313
  15.2450113   8.2511673  77.0551313  14.9260113   8.7561673  76.5471313
  13.3300113   7.7771673  87.6851313  13.4590113   7.4971673  88.5011313
  12.7200113   7.2361673  87.3761313  13.2590113   7.6561673  87.7601313
  14.7760113   2.2981673  81.8871313  14.3140113   1.9061673  81.2601313
  15.4760113   1.7851673  81.9791313  14.8110113   2.1651673  81.8081313
  19.8860113   8.4941673  90.0151313  20.0240113   9.2541673  89.6081313
  20.6770113   8.1291673  90.0421313  20.0230113   8.5531673  89.9591313
  20.9810113   6.3791673  84.5201313  21.3290113   5.5801673  84.5501313
  21.6460113   6.8831673  84.2651313  21.1310113   6.3351673  84.4871313
  21.0380113   5.8281673  80.7311313  21.3690113   5.1841673  81.2171313
  21.2780113   5.6171673  79.9201313  21.1220113   5.7021673  80.6831313
  13.1420113   9.7691673  82.8001313  12.5500113  10.3271673  82.4871313
  13.5680113   9.5001673  82.0881313  13.1180113   9.8111673  82.6491313
  18.9820113   7.6131673  80.2801313  18.4030113   7.3381673  80.8721313
  19.6060113   7.0041673  80.3051313  18.9890113   7.4831673  80.3711313
  25.1250113   9.9011673  77.8021313  25.8520113  10.3731673  77.9041313
  25.3540113   9.1071673  78.0821313  25.2670113   9.8541673  77.8591313
  23.2930113  10.2931673  79.7921313  23.5070113  10.8201673  80.4541313
  24.0600113  10.1191673  79.4131313  23.4380113  10.3451673  79.8341313
  14.6870113   8.4391673  80.7311313  15.3430113   7.8641673  80.7461313
  15.0760113   9.1881673  80.5101313  14.8420113   8.4641673  80.7011313
  25.7320113  10.3031673  88.0971313  26.4760113  10.7591673  88.0871313
  25.6110113  10.0891673  87.2601313  25.8240113  10.3391673  87.9721313
  15.5050113   6.9261673  84.2311313  15.9280113   6.5701673  83.5571313
  15.8290113   6.5041673  84.9231313  15.6150113   6.8111673  84.2341313
  18.7360113   9.7781673  83.5271313  19.5800113   9.8821673  83.3321313
  18.4390113  10.5961673  83.5951313  18.8170113   9.9141673  83.5081313
  27.3060113  11.4881673  78.2021313  27.9710113  11.3401673  77.6571313
  27.6660113  11.4051673  78.9921313  27.4580113  11.4541673  78.2381313
  17.7340113  10.9971673  89.2671313  18.0260113  10.9301673  90.0871313
  17.1080113  10.3921673  89.2221313  17.6850113  10.8981673  89.3821313
  24.9860113   7.4881673  91.8011313  24.9520113   7.8701673  92.5851313
  25.8400113   7.4461673  91.6301313  25.1070113   7.5381673  91.8921313
  22.1240113   7.6851673  76.5511313  21.9430113   8.2301673  77.2081313
  22.8900113   7.9751673  76.2501313  22.2100113   7.8091673  76.6041313
  15.7270113   9.1591673  88.3891313  15.0290113   8.6511673  88.5151313
  15.9870113   8.9541673  87.5811313  15.6620113   9.0541673  88.2881313
  23.4380113  10.6521673  89.2991313  24.2060113  10.5721673  88.8931313
  22.8550113  10.5311673  88.6611313  23.4650113  10.6221673  89.1451313
  29.7150113  11.2551673  82.2001313  29.2600113  11.9721673  82.4011313
  29.1010113  10.6841673  81.9581313  29.5570113  11.2771673  82.1941313
  26.7120113   7.1001673  81.7441313  27.4130113   6.6181673  81.9331313
  26.0520113   6.5311673  81.7891313  26.7180113   6.9451673  81.7781313
  17.0880113   8.0101673  90.9561313  17.9290113   8.0731673  90.7341313
  17.0510113   8.4071673  91.7321313  17.2070113   8.0781673  91.0381313
  19.0510113   3.5211673  85.7051313  19.2230113   3.3111673  86.5341313
  18.3960113   2.9871673  85.4891313  18.9800113   3.4111673  85.7961313
  19.8010113   3.4591673  88.2951313  19.8540113   4.3061673  88.4971313
  19.5160113   3.0891673  89.0321313  19.7670113   3.5291673  88.4331313
  25.9780113   4.1541673  87.4251313  25.4640113   3.7421673  87.9961313
  25.8520113   4.9981673  87.6061313  25.8840113   4.2181673  87.5361313
  29.2310113   4.5931673  77.5521313  29.3500113   4.3061673  78.3671313
  30.0380113   4.6141673  77.2221313  29.3670113   4.5541673  77.6241313
  16.3670113   4.3251673  82.8831313  17.2180113   4.2451673  82.7101313
  16.0100113   3.6431673  82.4711313  16.4400113   4.2121673  82.7961313
  15.1340113  11.0501673  84.1201313  14.4610113  10.5521673  83.8751313
  15.5370113  11.2351673  83.3691313  15.0940113  11.0041673  83.9731313
  31.4650113   9.1021673  91.8061313  30.7830113   9.4121673  91.3591313
  31.0960113   8.6441673  92.4511313  31.3090113   9.0801673  91.8351313
  18.7350113   4.3321673  81.1181313  19.4480113   4.8271673  81.2081313
  18.9570113   3.7651673  80.4921313  18.8730113   4.3211673  81.0391313
  12.8910113   5.9751673  84.4381313  12.2240113   6.4631673  84.7141313
  13.5710113   6.5201673  84.4671313  12.8930113   6.1271673  84.4831313
  12.9570113   2.6591673  79.5411313  12.7720113   1.8201673  79.6931313
  13.6160113   2.6231673  78.9711313  13.0270113   2.5301673  79.4791313
  23.2580113   8.0351673  83.4451313  22.7350113   8.6691673  83.1521313
  23.5680113   7.6711673  82.7161313  23.2260113   8.0751673  83.2941313
  13.1290113   6.8231673  79.1161313  13.6810113   7.3921673  79.4801313
  12.8970113   6.3081673  79.7811313  13.1760113   6.8311673  79.2681313
  17.3330113   5.8231673  86.2051313  17.8000113   6.1121673  86.8831313
  17.9050113   5.3451673  85.7511313  17.4870113   5.7951673  86.2381313
  12.9590113   5.2721673  76.7441313  13.7150113   4.8401673  76.8021313
  12.9740113   5.8041673  77.4351313  13.0730113   5.2871673  76.8551313
  13.8990113   3.4931673  84.7491313  14.3300113   3.3641673  84.0021313
  13.6940113   4.3411673  84.7231313  13.9320113   3.5991673  84.6351313
  29.2990113   9.4841673  89.8961313  28.6280113   9.9981673  90.1141313
  29.3620113   9.5841673  89.0321313  29.2090113   9.5751673  89.8011313
  17.9830113   7.0091673  83.0311313  18.1090113   7.8521673  83.2181313
  18.6510113   6.6101673  83.4271313  18.1010113   7.0751673  83.1171313
  21.2950113  10.2331673  87.4921313  21.0180113   9.5921673  86.9691313
  21.0870113  10.9591673  87.0541313  21.2240113  10.2461673  87.3501313
  26.5970113   5.0161673  91.9171313  27.0810113   5.7341673  92.0151313
  26.9910113   4.5891673  91.2661313  26.7270113   5.0591673  91.8351313
  24.0540113   1.7771673  78.0061313  24.0460113   2.4991673  77.5161313
  23.4150113   1.9121673  78.5831313  23.9590113   1.9041673  78.0191313
  29.0260113   5.6471673  81.9871313  29.3820113   5.2971673  82.7021313
  29.0180113   4.9861673  81.4171313  29.0780113   5.4971673  82.0081313
  25.0710113   8.7131673  85.8311313  24.4680113   8.4171673  85.2741313
  25.6160113   9.1651673  85.3221313  25.0620113   8.7361673  85.6731313
  25.0840113   5.5641673  85.2311313  24.2870113   5.7881673  85.5051313
  25.3420113   4.9701673  85.8161313  25.0040113   5.5091673  85.3581313
  18.9760113  10.3761673  79.6791313  18.8290113   9.6001673  80.0501313
  19.6650113  10.2291673  79.1641313  19.0560113  10.2391673  79.6581313
  21.2680113   9.8921673  78.0811313  21.8900113  10.0551673  78.6711313
  21.3040113  10.5831673  77.5491313  21.3650113  10.0181673  78.0901313
  28.3440113   3.5621673  90.0771313  28.3990113   3.6871673  89.2151313
  29.0970113   3.8821673  90.3791313  28.4630113   3.6271673  89.9941313
  24.0750113   3.3681673  89.6771313  23.9200113   3.9781673  90.2811313
  24.6090113   2.8101673  90.0831313  24.1310113   3.3761673  89.8261313
  27.6850113   6.0971673  86.2041313  27.2060113   6.3951673  85.5381313
  27.3290113   5.3211673  86.3821313  27.5620113   6.0261673  86.1321313
  21.6820113   3.8151673  84.7661313  20.8350113   3.6211673  84.8471313
  22.0060113   3.6501673  85.5591313  21.6040113   3.7621673  84.8951313
  18.4340113  10.5451673  75.6521313  18.8730113   9.8481673  75.9401313
  18.6410113  11.1691673  76.2251313  18.5300113  10.5341673  75.7791313
  15.5300113   3.5081673  87.0821313  16.2520113   3.9961673  87.0451313
  15.2600113   3.4781673  86.2531313  15.5970113   3.5761673  86.9541313
  31.3770113  10.2631673  78.1441313  32.0710113   9.7961673  77.8961313
  30.8380113   9.6651673  78.4811313  31.4000113  10.1051673  78.1571313
  28.6160113   3.0391673  87.3231313  28.6090113   2.2631673  87.7211313
  27.7750113   3.2731673  87.3161313  28.4910113   2.9591673  87.3811313
  14.9250113   4.5601673  91.3601313  14.5040113   4.0421673  90.7991313
  14.5730113   5.3461673  91.2171313  14.8110113   4.6001673  91.2561313
  29.8720113   3.1101673  84.7601313  29.5860113   3.5111673  85.4801313
  30.7320113   3.0481673  84.8871313  29.9570113   3.1601673  84.8851313
  31.0030113   8.7431673  85.2891313  31.2930113   9.0001673  84.5081313
  31.6980113   8.8391673  85.8081313  31.1490113   8.7951673  85.2501313
  27.6080113   7.3461673  77.2711313  27.9420113   6.5401673  77.3061313
  26.8530113   7.2741673  77.7011313  27.5460113   7.2161673  77.3401313
  30.5300113   5.1401673  90.6821313  31.1580113   4.5911673  90.4261313
  30.4690113   5.7051673  90.0201313  30.6140113   5.1431673  90.5461313
  24.9820113   5.2211673  76.6741313  25.6660113   4.7071673  76.5051313
  24.5650113   5.2671673  75.9091313  25.0210113   5.1521673  76.5361313
  19.6640113   6.3711673  87.9781313  19.3660113   6.9631673  88.5451313
  19.7190113   6.8131673  87.2291313  19.6280113   6.5241673  87.9511313
  17.6430113   5.3211673  91.3761313  16.8370113   5.0311673  91.5431313
  17.5540113   6.1891673  91.3821313  17.5110113   5.4061673  91.4011313
  22.1800113   2.7941673  87.4691313  22.6560113   3.1681673  88.0971313
  21.3570113   2.9281673  87.7281313  22.1290113   2.8691673  87.6001313
  21.4440113  10.1871673  82.6971313  21.9900113  10.8661673  82.7511313
  21.0940113  10.2691673  81.9021313  21.4730113  10.3001673  82.5871313
  19.6270113   8.4151673  86.0861313  19.0030113   8.9971673  85.9041313
  19.8750113   8.1291673  85.3001313  19.5710113   8.4591673  85.9431313
  27.8450113   7.5991673  91.5791313  28.1910113   7.8691673  92.3331313
  28.1390113   8.1811673  90.9991313  27.9400113   7.7251673  91.6051313
  21.2210113   3.1911673  76.0011313  20.4160113   3.0141673  75.7161313
  21.1880113   4.0421673  76.1931313  21.0970113   3.2901673  75.9881313
  22.2800113  10.0641673  91.9661313  22.7580113   9.4641673  91.5501313
  21.9290113   9.6211673  92.6311313  22.2990113   9.9101673  92.0031313
  28.8680113   3.3711673  80.1471313  29.3440113   2.6421673  80.0991313
  28.0470113   3.0851673  80.0711313  28.8170113   3.2211673  80.1281313
  22.3390113   5.2831673  90.9861313  21.5440113   5.2191673  91.3371313
  22.4100113   6.1301673  90.7911313  22.2320113   5.3981673  91.0091313
  18.1690113  11.4901673  86.3031313  18.1800113  11.5491673  87.1731313
  17.7440113  10.7431673  86.1531313  18.1080113  11.3881673  86.4091313
  25.0840113   4.5381673  82.5021313  25.1600113   4.8791673  83.3011313
  25.2530113   3.6911673  82.6231313  25.1200113   4.4631673  82.6381313
  22.6060113   3.8121673  82.0671313  22.3080113   3.4971673  82.8241313
  23.3010113   4.2851673  82.3021313  22.6650113   3.8351673  82.2141313
  22.8280113   7.9301673  90.0941313  23.5150113   7.8161673  90.6191313
  22.9620113   8.7211673  89.7501313  22.9490113   8.0301673  90.1211313
  14.9330113  10.9881673  91.7451313  14.2790113  10.4191673  91.8431313
  14.5580113  11.7611673  91.8961313  14.7810113  11.0181673  91.7821313
  26.5350113  10.7681673  84.5971313  26.0840113  11.4111673  84.9761313
  27.2430113  10.6891673  85.1021313  26.5730113  10.8511673  84.7281313
  23.2360113   5.8581673  87.5271313  22.5420113   6.2601673  87.8701313
  23.9130113   6.2911673  87.8661313  23.2330113   5.9811673  87.6281313
  23.5580113   7.4491673  80.6961313  23.3530113   8.2821673  80.5371313
  22.7830113   7.0671673  80.8181313  23.4130113   7.5161673  80.6911313
  13.4760113   3.0701673  89.3731313  13.7960113   3.2891673  88.5921313
  13.3760113   2.2051673  89.3181313  13.5080113   2.9751673  89.2501313
  18.9200113   7.7111673  77.1051313  19.3610113   7.7911673  77.8531313
  18.1150113   7.4951673  77.3631313  18.8660113   7.6911673  77.2541313
  18.2390113   2.3621673  90.7581313  17.8430113   3.1361673  90.8331313
  17.8330113   1.9891673  90.0821313  18.1210113   2.4211673  90.6691313
  27.8280113   9.4821673  80.6791313  27.6540113   8.8281673  81.2291313
  28.5410113   9.2111673  80.2561313  27.9080113   9.3451673  80.6981313
  16.2490113   6.7811673  77.7061313  16.0050113   6.4741673  78.4861313
  16.2160113   6.0781673  77.1901313  16.2080113   6.6321673  77.7451313
  19.0680113   5.0261673  76.4491313  18.2500113   4.7581673  76.5891313
  19.0400113   5.8781673  76.6341313  18.9430113   5.1131673  76.4971313
  25.5030113   6.9351673  88.3701313  25.7090113   7.2361673  89.1621313
  25.4420113   7.6571673  87.8851313  25.5240113   7.0861673  88.4151313
  30.3150113   5.5741673  87.8281313  30.2830113   4.7121673  87.6931313
  29.6220113   5.8761673  87.3941313  30.2080113   5.4911673  87.7441313
  28.4200113   8.8341673  86.6251313  28.9470113   8.7511673  85.9341313
  28.0290113   8.0561673  86.6791313  28.4400113   8.7071673  86.5311313
  14.2290113   7.1441673  90.3231313  13.6550113   7.5601673  90.8321313
  14.9620113   7.6091673  90.4181313  14.2530113   7.2741673  90.4121313
  16.0150113  10.4111673  79.0981313  15.8700113  10.5671673  78.2521313
  16.8810113  10.4901673  79.1761313  16.1220113  10.4461673  78.9851313
  20.1820113   2.8081673  78.8261313  20.2820113   2.9471673  77.9711313
  21.0000113   2.7481673  79.1221313  20.3170113   2.8191673  78.7431313
  29.3420113  10.8721673  76.3061313  29.9790113  10.7381673  76.8871313
  29.0010113  10.0781673  76.1891313  29.3860113  10.7351673  76.3741313
  25.4170113   7.1371673  78.6281313  25.1660113   7.0091673  79.4541313
  25.1000113   6.4421673  78.2071313  25.3330113   7.0161673  78.6881313
  16.7020113   9.2261673  85.5751313  16.6230113   8.4161673  85.2591313
  16.2580113   9.7131673  85.0031313  16.6250113   9.1781673  85.4441313
  22.3030113   5.3451673  78.0581313  23.0200113   4.9981673  77.7021313
  22.2690113   6.1451673  77.7101313  22.4040113   5.4121673  77.9541313
  14.2740113  11.4701673  89.1561313  14.7670113  11.4141673  89.8741313
  14.4620113  10.7371673  88.7211313  14.3750113  11.3531673  89.1981313
  13.3900113   5.0421673  62.4238903  12.9490113   5.1601673  63.1668903
  13.1070113   4.2671673  62.1388903  13.2830113   4.9451673  62.4918903
  29.6650113   8.3431673  59.9388903  30.3660113   7.8241673  59.9348903
  29.0780113   7.8981673  59.4698903  29.6820113   8.2001673  59.8688903
  16.2720113   4.0971673  57.6028903  15.8800113   3.7261673  56.9168903
  16.1920113   3.4991673  58.2318903  16.2020113   3.9541673  57.5938903
  15.8990113   5.7381673  61.5028903  16.5070113   5.5681673  62.1058903
  15.1480113   5.5981673  61.9238903  15.8780113   5.6921673  61.6538903
  14.7900113   8.8291673  57.5798903  15.2570113   8.9131673  56.8478903
  15.2450113   8.2511673  58.0488903  14.9260113   8.7561673  57.5408903
  13.3300113   7.7771673  68.6788903  13.4590113   7.4971673  69.4948903
  12.7200113   7.2361673  68.3698903  13.2590113   7.6561673  68.7538903
  19.9040113   5.3021673  73.7458903  19.6680113   5.2991673  74.5858903
  19.1560113   5.1541673  73.3218903  19.7580113   5.2791673  73.8068903
  14.7760113   2.2981673  62.8808903  14.3140113   1.9061673  62.2538903
  15.4760113   1.7851673  62.9728903  14.8110113   2.1651673  62.8018903
  19.8860113   8.4941673  71.0088903  20.0240113   9.2541673  70.6018903
  20.6770113   8.1291673  71.0358903  20.0230113   8.5531673  70.9528903
  20.9810113   6.3791673  65.5138903  21.3290113   5.5801673  65.5438903
  21.6460113   6.8831673  65.2588903  21.1310113   6.3351673  65.4808903
  21.0380113   5.8281673  61.7248903  21.3690113   5.1841673  62.2108903
  21.2780113   5.6171673  60.9138903  21.1220113   5.7021673  61.6768903
  13.1420113   9.7691673  63.7938903  12.5500113  10.3271673  63.4808903
  13.5680113   9.5001673  63.0818903  13.1180113   9.8111673  63.6428903
  18.9820113   7.6131673  61.2738903  18.4030113   7.3381673  61.8658903
  19.6060113   7.0041673  61.2988903  18.9890113   7.4831673  61.3648903
  25.1250113   9.9011673  58.7958903  25.8520113  10.3731673  58.8978903
  25.3540113   9.1071673  59.0758903  25.2670113   9.8541673  58.8528903
  23.2930113  10.2931673  60.7858903  23.5070113  10.8201673  61.4478903
  24.0600113  10.1191673  60.4068903  23.4380113  10.3451673  60.8278903
  14.6870113   8.4391673  61.7248903  15.3430113   7.8641673  61.7398903
  15.0760113   9.1881673  61.5038903  14.8420113   8.4641673  61.6948903
  25.7320113  10.3031673  69.0908903  26.4760113  10.7591673  69.0808903
  25.6110113  10.0891673  68.2538903  25.8240113  10.3391673  68.9658903
  15.5050113   6.9261673  65.2248903  15.9280113   6.5701673  64.5508903
  15.8290113   6.5041673  65.9168903  15.6150113   6.8111673  65.2278903
  18.7360113   9.7781673  64.5208903  19.5800113   9.8821673  64.3258903
  18.4390113  10.5961673  64.5888903  18.8170113   9.9141673  64.5018903
  27.3060113  11.4881673  59.1958903  27.9710113  11.3401673  58.6508903
  27.6660113  11.4051673  59.9858903  27.4580113  11.4541673  59.2318903
  17.7340113  10.9971673  70.2608903  18.0260113  10.9301673  71.0808903
  17.1080113  10.3921673  70.2158903  17.6850113  10.8981673  70.3758903
  24.9860113   7.4881673  72.7948903  24.9520113   7.8701673  73.5788903
  25.8400113   7.4461673  72.6238903  25.1070113   7.5381673  72.8858903
  22.1240113   7.6851673  57.5448903  21.9430113   8.2301673  58.2018903
  22.8900113   7.9751673  57.2438903  22.2100113   7.8091673  57.5978903
  15.7270113   9.1591673  69.3828903  15.0290113   8.6511673  69.5088903
  15.9870113   8.9541673  68.5748903  15.6620113   9.0541673  69.2818903
  23.4380113  10.6521673  70.2928903  24.2060113  10.5721673  69.8868903
  22.8550113  10.5311673  69.6548903  23.4650113  10.6221673  70.1388903
  29.7150113  11.2551673  63.1938903  29.2600113  11.9721673  63.3948903
  29.1010113  10.6841673  62.9518903  29.5570113  11.2771673  63.1878903
  26.7120113   7.1001673  62.7378903  27.4130113   6.6181673  62.9268903
  26.0520113   6.5311673  62.7828903  26.7180113   6.9451673  62.7718903
  17.0880113   8.0101673  71.9498903  17.9290113   8.0731673  71.7278903
  17.0510113   8.4071673  72.7258903  17.2070113   8.0781673  72.0318903
  19.0510113   3.5211673  66.6988903  19.2230113   3.3111673  67.5278903
  18.3960113   2.9871673  66.4828903  18.9800113   3.4111673  66.7898903
  19.8010113   3.4591673  69.2888903  19.8540113   4.3061673  69.4908903
  19.5160113   3.0891673  70.0258903  19.7670113   3.5291673  69.4268903
  25.9780113   4.1541673  68.4188903  25.4640113   3.7421673  68.9898903
  25.8520113   4.9981673  68.5998903  25.8840113   4.2181673  68.5298903
  12.6220113   7.8301673  75.4998903  13.3780113   8.1791673  75.7578903
  12.7990113   6.9771673  75.4428903  12.7600113   7.7551673  75.5298903
  29.2310113   4.5931673  58.5458903  29.3500113   4.3061673  59.3608903
  30.0380113   4.6141673  58.2158903  29.3670113   4.5541673  58.6178903
  16.3670113   4.3251673  63.8768903  17.2180113   4.2451673  63.7038903
  16.0100113   3.6431673  63.4648903  16.4400113   4.2121673  63.7898903
  15.1340113  11.0501673  65.1138903  14.4610113  10.5521673  64.8688903
  15.5370113  11.2351673  64.3628903  15.0940113  11.0041673  64.9668903
  31.4650113   9.1021673  72.7998903  30.7830113   9.4121673  72.3528903
  31.0960113   8.6441673  73.4448903  31.3090113   9.0801673  72.8288903
  18.7350113   4.3321673  62.1118903  19.4480113   4.8271673  62.2018903
  18.9570113   3.7651673  61.4858903  18.8730113   4.3211673  62.0328903
  12.8910113   5.9751673  65.4318903  12.2240113   6.4631673  65.7078903
  13.5710113   6.5201673  65.4608903  12.8930113   6.1271673  65.4768903
  12.9570113   2.6591673  60.5348903  12.7720113   1.8201673  60.6868903
  13.6160113   2.6231673  59.9648903  13.0270113   2.5301673  60.4728903
  23.2580113   8.0351673  64.4388903  22.7350113   8.6691673  64.1458903
  23.5680113   7.6711673  63.7098903  23.2260113   8.0751673  64.2878903
  13.1290113   6.8231673  60.1098903  13.6810113   7.3921673  60.4738903
  12.8970113   6.3081673  60.7748903  13.1760113   6.8311673  60.2618903
  17.3330113   5.8231673  67.1988903  17.8000113   6.1121673  67.8768903
  17.9050113   5.3451673  66.7448903  17.4870113   5.7951673  67.2318903
  12.9590113   5.2721673  57.7378903  13.7150113   4.8401673  57.7958903
  12.9740113   5.8041673  58.4288903  13.0730113   5.2871673  57.8488903
  13.8990113   3.4931673  65.7428903  14.3300113   3.3641673  64.9958903
  13.6940113   4.3411673  65.7168903  13.9320113   3.5991673  65.6288903
  29.2990113   9.4841673  70.8898903  28.6280113   9.9981673  71.1078903
  29.3620113   9.5841673  70.0258903  29.2090113   9.5751673  70.7948903
  17.9830113   7.0091673  64.0248903  18.1090113   7.8521673  64.2118903
  18.6510113   6.6101673  64.4208903  18.1010113   7.0751673  64.1108903
  21.2950113  10.2331673  68.4858903  21.0180113   9.5921673  67.9628903
  21.0870113  10.9591673  68.0478903  21.2240113  10.2461673  68.3438903
  14.9940113   2.8111673  74.6528903  14.9570113   3.3121673  73.9388903
  15.3250113   2.0591673  74.3578903  15.0370113   2.7731673  74.5038903
  26.5970113   5.0161673  72.9108903  27.0810113   5.7341673  73.0088903
  26.9910113   4.5891673  72.2598903  26.7270113   5.0591673  72.8288903
  20.8930113   7.8611673  74.0878903  21.2470113   7.6831673  74.8648903
  20.4570113   7.1321673  73.8888903  20.8810113   7.7271673  74.1738903
  24.0540113   1.7771673  58.9998903  24.0460113   2.4991673  58.5098903
  23.4150113   1.9121673  59.5768903  23.9590113   1.9041673  59.0128903
  29.0260113   5.6471673  62.9808903  29.3820113   5.2971673  63.6958903
  29.0180113   4.9861673  62.4108903  29.0780113   5.4971673  63.0018903
  25.0710113   8.7131673  66.8248903  24.4680113   8.4171673  66.2678903
  25.6160113   9.1651673  66.3158903  25.0620113   8.7361673  66.6668903
  25.0840113   5.5641673  66.2248903  24.2870113   5.7881673  66.4988903
  25.3420113   4.9701673  66.8098903  25.0040113   5.5091673  66.3518903
  18.9760113  10.3761673  60.6728903  18.8290113   9.6001673  61.0438903
  19.6650113  10.2291673  60.1578903  19.0560113  10.2391673  60.6518903
  21.2680113   9.8921673  59.0748903  21.8900113  10.0551673  59.6648903
  21.3040113  10.5831673  58.5428903  21.3650113  10.0181673  59.0838903
  28.3440113   3.5621673  71.0708903  28.3990113   3.6871673  70.2088903
  29.0970113   3.8821673  71.3728903  28.4630113   3.6271673  70.9878903
  24.5350113   8.9111673  75.3478903  24.6990113   9.1941673  76.1568903
  24.7980113   9.5721673  74.8428903  24.5980113   9.0511673  75.3928903
  24.0750113   3.3681673  70.6708903  23.9200113   3.9781673  71.2748903
  24.6090113   2.8101673  71.0768903  24.1310113   3.3761673  70.8198903
  27.6850113   6.0971673  67.1978903  27.2060113   6.3951673  66.5318903
  27.3290113   5.3211673  67.3758903  27.5620113   6.0261673  67.1258903
  21.6820113   3.8151673  65.7598903  20.8350113   3.6211673  65.8408903
  22.0060113   3.6501673  66.5528903  21.6040113   3.7621673  65.8888903
  18.4340113  10.5451673  56.6458903  18.8730113   9.8481673  56.9338903
  18.6410113  11.1691673  57.2188903  18.5300113  10.5341673  56.7728903
  15.5300113   3.5081673  68.0758903  16.2520113   3.9961673  68.0388903
  15.2600113   3.4781673  67.2468903  15.5970113   3.5761673  67.9478903
  31.3770113  10.2631673  59.1378903  32.0710113   9.7961673  58.8898903
  30.8380113   9.6651673  59.4748903  31.4000113  10.1051673  59.1508903
  28.6160113   3.0391673  68.3168903  28.6090113   2.2631673  68.7148903
  27.7750113   3.2731673  68.3098903  28.4910113   2.9591673  68.3748903
  14.9250113   4.5601673  72.3538903  14.5040113   4.0421673  71.7928903
  14.5730113   5.3461673  72.2108903  14.8110113   4.6001673  72.2498903
  29.8720113   3.1101673  65.7538903  29.5860113   3.5111673  66.4738903
  30.7320113   3.0481673  65.8808903  29.9570113   3.1601673  65.8788903
  31.0030113   8.7431673  66.2828903  31.2930113   9.0001673  65.5018903
  31.6980113   8.8391673  66.8018903  31.1490113   8.7951673  66.2438903
  27.6080113   7.3461673  58.2648903  27.9420113   6.5401673  58.2998903
  26.8530113   7.2741673  58.6948903  27.5460113   7.2161673  58.3338903
  30.5300113   5.1401673  71.6758903  31.1580113   4.5911673  71.4198903
  30.4690113   5.7051673  71.0138903  30.6140113   5.1431673  71.5398903
  24.9820113   5.2211673  57.6678903  25.6660113   4.7071673  57.4988903
  24.5650113   5.2671673  56.9028903  25.0210113   5.1521673  57.5298903
  19.6640113   6.3711673  68.9718903  19.3660113   6.9631673  69.5388903
  19.7190113   6.8131673  68.2228903  19.6280113   6.5241673  68.9448903
  17.6430113   5.3211673  72.3698903  16.8370113   5.0311673  72.5368903
  17.5540113   6.1891673  72.3758903  17.5110113   5.4061673  72.3948903
  22.1800113   2.7941673  68.4628903  22.6560113   3.1681673  69.0908903
  21.3570113   2.9281673  68.7218903  22.1290113   2.8691673  68.5938903
  21.4440113  10.1871673  63.6908903  21.9900113  10.8661673  63.7448903
  21.0940113  10.2691673  62.8958903  21.4730113  10.3001673  63.5808903
  19.6270113   8.4151673  67.0798903  19.0030113   8.9971673  66.8978903
  19.8750113   8.1291673  66.2938903  19.5710113   8.4591673  66.9368903
  23.9360113   5.0491673  74.0688903  24.6930113   5.3351673  73.7428903
  23.3890113   5.1011673  73.3908903  23.9670113   5.0991673  73.9198903
  27.8450113   7.5991673  72.5728903  28.1910113   7.8691673  73.3268903
  28.1390113   8.1811673  71.9928903  27.9400113   7.7251673  72.5988903
  21.2210113   3.1911673  56.9948903  20.4160113   3.0141673  56.7098903
  21.1880113   4.0421673  57.1868903  21.0970113   3.2901673  56.9818903
  22.2800113  10.0641673  72.9598903  22.7580113   9.4641673  72.5438903
  21.9290113   9.6211673  73.6248903  22.2990113   9.9101673  72.9968903
  28.8680113   3.3711673  61.1408903  29.3440113   2.6421673  61.0928903
  28.0470113   3.0851673  61.0648903  28.8170113   3.2211673  61.1218903
  22.3390113   5.2831673  71.9798903  21.5440113   5.2191673  72.3308903
  22.4100113   6.1301673  71.7848903  22.2320113   5.3981673  72.0028903
  18.1690113  11.4901673  67.2968903  18.1800113  11.5491673  68.1668903
  17.7440113  10.7431673  67.1468903  18.1080113  11.3881673  67.4028903
  25.0840113   4.5381673  63.4958903  25.1600113   4.8791673  64.2948903
  25.2530113   3.6911673  63.6168903  25.1200113   4.4631673  63.6318903
  22.6060113   3.8121673  63.0608903  22.3080113   3.4971673  63.8178903
  23.3010113   4.2851673  63.2958903  22.6650113   3.8351673  63.2078903
  22.8280113   7.9301673  71.0878903  23.5150113   7.8161673  71.6128903
  22.9620113   8.7211673  70.7438903  22.9490113   8.0301673  71.1148903
  14.9330113  10.9881673  72.7388903  14.2790113  10.4191673  72.8368903
  14.5580113  11.7611673  72.8898903  14.7810113  11.0181673  72.7758903
  23.4510113   2.3941673  74.6618903  23.7740113   3.0801673  74.2298903
  22.7470113   2.7171673  75.0638903  23.3940113   2.5431673  74.6568903
  26.5350113  10.7681673  65.5908903  26.0840113  11.4111673  65.9698903
  27.2430113  10.6891673  66.0958903  26.5730113  10.8511673  65.7218903
  23.2360113   5.8581673  68.5208903  22.5420113   6.2601673  68.8638903
  23.9130113   6.2911673  68.8598903  23.2330113   5.9811673  68.6218903
  28.6130113   8.4511673  75.1008903  29.3890113   8.0611673  75.1838903
  28.1440113   8.1151673  75.7558903  28.6580113   8.3441673  75.2098903
  23.5580113   7.4491673  61.6898903  23.3530113   8.2821673  61.5308903
  22.7830113   7.0671673  61.8118903  23.4130113   7.5161673  61.6848903
  13.4760113   3.0701673  70.3668903  13.7960113   3.2891673  69.5858903
  13.3760113   2.2051673  70.3118903  13.5080113   2.9751673  70.2438903
  18.9200113   7.7111673  58.0988903  19.3610113   7.7911673  58.8468903
  18.1150113   7.4951673  58.3568903  18.8660113   7.6911673  58.2478903
  18.2390113   2.3621673  71.7518903  17.8430113   3.1361673  71.8268903
  17.8330113   1.9891673  71.0758903  18.1210113   2.4211673  71.6628903
  27.8280113   9.4821673  61.6728903  27.6540113   8.8281673  62.2228903
  28.5410113   9.2111673  61.2498903  27.9080113   9.3451673  61.6918903
  16.2490113   6.7811673  58.6998903  16.0050113   6.4741673  59.4798903
  16.2160113   6.0781673  58.1838903  16.2080113   6.6321673  58.7388903
  19.0680113   5.0261673  57.4428903  18.2500113   4.7581673  57.5828903
  19.0400113   5.8781673  57.6278903  18.9430113   5.1131673  57.4908903
  25.5030113   6.9351673  69.3638903  25.7090113   7.2361673  70.1558903
  25.4420113   7.6571673  68.8788903  25.5240113   7.0861673  69.4088903
  25.0370113  11.1491673  73.6098903  24.2840113  11.1311673  73.1688903
  25.2050113  12.0011673  73.6938903  24.9510113  11.2721673  73.5568903
  30.3150113   5.5741673  68.8218903  30.2830113   4.7121673  68.6868903
  29.6220113   5.8761673  68.3878903  30.2080113   5.4911673  68.7378903
  18.7090113  10.7721673  73.0278903  18.7500113  10.8981673  73.8908903
  19.3600113  10.2121673  72.8718903  18.8110113  10.7081673  73.1328903
  28.4200113   8.8341673  67.6188903  28.9470113   8.7511673  66.9278903
  28.0290113   8.0561673  67.6728903  28.4400113   8.7071673  67.5248903
  16.3020113   9.1551673  74.3878903  16.8970113   9.5861673  74.8598903
  15.9380113   9.7791673  73.8988903  16.3360113   9.3111673  74.3848903
  14.2290113   7.1441673  71.3168903  13.6550113   7.5601673  71.8258903
  14.9620113   7.6091673  71.4118903  14.2530113   7.2741673  71.4058903
  16.0150113  10.4111673  60.0918903  15.8700113  10.5671673  59.2458903
  16.8810113  10.4901673  60.1698903  16.1220113  10.4461673  59.9788903
  20.1820113   2.8081673  59.8198903  20.2820113   2.9471673  58.9648903
  21.0000113   2.7481673  60.1158903  20.3170113   2.8191673  59.7368903
  29.3420113  10.8721673  57.2998903  29.9790113  10.7381673  57.8808903
  29.0010113  10.0781673  57.1828903  29.3860113  10.7351673  57.3678903
  29.5370113   3.2901673  74.0328903  30.1710113   3.1201673  74.6068903
  29.9540113   3.6931673  73.3808903  29.6920113   3.3251673  74.0218903
  25.4170113   7.1371673  59.6218903  25.1660113   7.0091673  60.4478903
  25.1000113   6.4421673  59.2008903  25.3330113   7.0161673  59.6818903
  26.9480113   3.4011673  75.3878903  27.8190113   3.3651673  75.3518903
  26.7290113   3.8211673  74.6558903  27.0450113   3.4571673  75.2748903
  16.7020113   9.2261673  66.5688903  16.6230113   8.4161673  66.2528903
  16.2580113   9.7131673  65.9968903  16.6250113   9.1781673  66.4378903
  22.3030113   5.3451673  59.0518903  23.0200113   4.9981673  58.6958903
  22.2690113   6.1451673  58.7038903  22.4040113   5.4121673  58.9478903
  14.2740113  11.4701673  70.1498903  14.7670113  11.4141673  70.8678903
  14.4620113  10.7371673  69.7148903  14.3750113  11.3531673  70.1918903
  13.3900113   5.0421673  43.4176493  12.9490113   5.1601673  44.1606493
  13.1070113   4.2671673  43.1326493  13.2830113   4.9451673  43.4856493
  29.6650113   8.3431673  40.9326493  30.3660113   7.8241673  40.9286493
  29.0780113   7.8981673  40.4636493  29.6820113   8.2001673  40.8626493
  16.2720113   4.0971673  38.5966493  15.8800113   3.7261673  37.9106493
  16.1920113   3.4991673  39.2256493  16.2020113   3.9541673  38.5876493
  15.8990113   5.7381673  42.4966493  16.5070113   5.5681673  43.0996493
  15.1480113   5.5981673  42.9176493  15.8780113   5.6921673  42.6476493
  14.7900113   8.8291673  38.5736493  15.2570113   8.9131673  37.8416493
  15.2450113   8.2511673  39.0426493  14.9260113   8.7561673  38.5346493
  13.3300113   7.7771673  49.6726493  13.4590113   7.4971673  50.4886493
  12.7200113   7.2361673  49.3636493  13.2590113   7.6561673  49.7476493
  19.9040113   5.3021673  54.7396493  19.6680113   5.2991673  55.5796493
  19.1560113   5.1541673  54.3156493  19.7580113   5.2791673  54.8006493
  14.7760113   2.2981673  43.8746493  14.3140113   1.9061673  43.2476493
  15.4760113   1.7851673  43.9666493  14.8110113   2.1651673  43.7956493
  19.8860113   8.4941673  52.0026493  20.0240113   9.2541673  51.5956493
  20.6770113   8.1291673  52.0296493  20.0230113   8.5531673  51.9466493
  20.9810113   6.3791673  46.5076493  21.3290113   5.5801673  46.5376493
  21.6460113   6.8831673  46.2526493  21.1310113   6.3351673  46.4746493
  21.0380113   5.8281673  42.7186493  21.3690113   5.1841673  43.2046493
  21.2780113   5.6171673  41.9076493  21.1220113   5.7021673  42.6706493
  13.1420113   9.7691673  44.7876493  12.5500113  10.3271673  44.4746493
  13.5680113   9.5001673  44.0756493  13.1180113   9.8111673  44.6366493
  18.9820113   7.6131673  42.2676493  18.4030113   7.3381673  42.8596493
  19.6060113   7.0041673  42.2926493  18.9890113   7.4831673  42.3586493
  25.1250113   9.9011673  39.7896493  25.8520113  10.3731673  39.8916493
  25.3540113   9.1071673  40.0696493  25.2670113   9.8541673  39.8466493
  23.2930113  10.2931673  41.7796493  23.5070113  10.8201673  42.4416493
  24.0600113  10.1191673  41.4006493  23.4380113  10.3451673  41.8216493
  14.6870113   8.4391673  42.7186493  15.3430113   7.8641673  42.7336493
  15.0760113   9.1881673  42.4976493  14.8420113   8.4641673  42.6886493
  25.7320113  10.3031673  50.0846493  26.4760113  10.7591673  50.0746493
  25.6110113  10.0891673  49.2476493  25.8240113  10.3391673  49.9596493
  15.5050113   6.9261673  46.2186493  15.9280113   6.5701673  45.5446493
  15.8290113   6.5041673  46.9106493  15.6150113   6.8111673  46.2216493
  18.7360113   9.7781673  45.5146493  19.5800113   9.8821673  45.3196493
  18.4390113  10.5961673  45.5826493  18.8170113   9.9141673  45.4956493
  27.3060113  11.4881673  40.1896493  27.9710113  11.3401673  39.6446493
  27.6660113  11.4051673  40.9796493  27.4580113  11.4541673  40.2256493
  17.7340113  10.9971673  51.2546493  18.0260113  10.9301673  52.0746493
  17.1080113  10.3921673  51.2096493  17.6850113  10.8981673  51.3696493
  24.9860113   7.4881673  53.7886493  24.9520113   7.8701673  54.5726493
  25.8400113   7.4461673  53.6176493  25.1070113   7.5381673  53.8796493
  22.1240113   7.6851673  38.5386493  21.9430113   8.2301673  39.1956493
  22.8900113   7.9751673  38.2376493  22.2100113   7.8091673  38.5916493
  15.7270113   9.1591673  50.3766493  15.0290113   8.6511673  50.5026493
  15.9870113   8.9541673  49.5686493  15.6620113   9.0541673  50.2756493
  23.4380113  10.6521673  51.2866493  24.2060113  10.5721673  50.8806493
  22.8550113  10.5311673  50.6486493  23.4650113  10.6221673  51.1326493
  29.7150113  11.2551673  44.1876493  29.2600113  11.9721673  44.3886493
  29.1010113  10.6841673  43.9456493  29.5570113  11.2771673  44.1816493
  26.7120113   7.1001673  43.7316493  27.4130113   6.6181673  43.9206493
  26.0520113   6.5311673  43.7766493  26.7180113   6.9451673  43.7656493
  17.0880113   8.0101673  52.9436493  17.9290113   8.0731673  52.7216493
  17.0510113   8.4071673  53.7196493  17.2070113   8.0781673  53.0256493
  19.0510113   3.5211673  47.6926493  19.2230113   3.3111673  48.5216493
  18.3960113   2.9871673  47.4766493  18.9800113   3.4111673  47.7836493
  19.8010113   3.4591673  50.2826493  19.8540113   4.3061673  50.4846493
  19.5160113   3.0891673  51.0196493  19.7670113   3.5291673  50.4206493
  25.9780113   4.1541673  49.4126493  25.4640113   3.7421673  49.9836493
  25.8520113   4.9981673  49.5936493  25.8840113   4.2181673  49.5236493
  12.6220113   7.8301673  56.4936493  13.3780113   8.1791673  56.7516493
  12.7990113   6.9771673  56.4366493  12.7600113   7.7551673  56.5236493
  29.2310113   4.5931673  39.5396493  29.3500113   4.3061673  40.3546493
  30.0380113   4.6141673  39.2096493  29.3670113   4.5541673  39.6116493
  16.3670113   4.3251673  44.8706493  17.2180113   4.2451673  44.6976493
  16.0100113   3.6431673  44.4586493  16.4400113   4.2121673  44.7836493
  15.1340113  11.0501673  46.1076493  14.4610113  10.5521673  45.8626493
  15.5370113  11.2351673  45.3566493  15.0940113  11.0041673  45.9606493
  31.4650113   9.1021673  53.7936493  30.7830113   9.4121673  53.3466493
  31.0960113   8.6441673  54.4386493  31.3090113   9.0801673  53.8226493
  18.7350113   4.3321673  43.1056493  19.4480113   4.8271673  43.1956493
  18.9570113   3.7651673  42.4796493  18.8730113   4.3211673  43.0266493
  12.8910113   5.9751673  46.4256493  12.2240113   6.4631673  46.7016493
  13.5710113   6.5201673  46.4546493  12.8930113   6.1271673  46.4706493
  12.9570113   2.6591673  41.5286493  12.7720113   1.8201673  41.6806493
  13.6160113   2.6231673  40.9586493  13.0270113   2.5301673  41.4666493
  23.2580113   8.0351673  45.4326493  22.7350113   8.6691673  45.1396493
  23.5680113   7.6711673  44.7036493  23.2260113   8.0751673  45.2816493
  13.1290113   6.8231673  41.1036493  13.6810113   7.3921673  41.4676493
  12.8970113   6.3081673  41.7686493  13.1760113   6.8311673  41.2556493
  17.3330113   5.8231673  48.1926493  17.8000113   6.1121673  48.8706493
  17.9050113   5.3451673  47.7386493  17.4870113   5.7951673  48.2256493
  12.9590113   5.2721673  38.7316493  13.7150113   4.8401673  38.7896493
  12.9740113   5.8041673  39.4226493  13.0730113   5.2871673  38.8426493
  13.8990113   3.4931673  46.7366493  14.3300113   3.3641673  45.9896493
  13.6940113   4.3411673  46.7106493  13.9320113   3.5991673  46.6226493
  29.2990113   9.4841673  51.8836493  28.6280113   9.9981673  52.1016493
  29.3620113   9.5841673  51.0196493  29.2090113   9.5751673  51.7886493
  17.9830113   7.0091673  45.0186493  18.1090113   7.8521673  45.2056493
  18.6510113   6.6101673  45.4146493  18.1010113   7.0751673  45.1046493
  21.2950113  10.2331673  49.4796493  21.0180113   9.5921673  48.9566493
  21.0870113  10.9591673  49.0416493  21.2240113  10.2461673  49.3376493
  14.9940113   2.8111673  55.6466493  14.9570113   3.3121673  54.9326493
  15.3250113   2.0591673  55.3516493  15.0370113   2.7731673  55.4976493
  26.5970113   5.0161673  53.9046493  27.0810113   5.7341673  54.0026493
  26.9910113   4.5891673  53.2536493  26.7270113   5.0591673  53.8226493
  20.8930113   7.8611673  55.0816493  21.2470113   7.6831673  55.8586493
  20.4570113   7.1321673  54.8826493  20.8810113   7.7271673  55.1676493
  24.0540113   1.7771673  39.9936493  24.0460113   2.4991673  39.5036493
  23.4150113   1.9121673  40.5706493  23.9590113   1.9041673  40.0066493
  29.0260113   5.6471673  43.9746493  29.3820113   5.2971673  44.6896493
  29.0180113   4.9861673  43.4046493  29.0780113   5.4971673  43.9956493
  25.0710113   8.7131673  47.8186493  24.4680113   8.4171673  47.2616493
  25.6160113   9.1651673  47.3096493  25.0620113   8.7361673  47.6606493
  25.0840113   5.5641673  47.2186493  24.2870113   5.7881673  47.4926493
  25.3420113   4.9701673  47.8036493  25.0040113   5.5091673  47.3456493
  18.9760113  10.3761673  41.6666493  18.8290113   9.6001673  42.0376493
  19.6650113  10.2291673  41.1516493  19.0560113  10.2391673  41.6456493
  21.2680113   9.8921673  40.0686493  21.8900113  10.0551673  40.6586493
  21.3040113  10.5831673  39.5366493  21.3650113  10.0181673  40.0776493
  28.3440113   3.5621673  52.0646493  28.3990113   3.6871673  51.2026493
  29.0970113   3.8821673  52.3666493  28.4630113   3.6271673  51.9816493
  24.5350113   8.9111673  56.3416493  24.6990113   9.1941673  57.1506493
  24.7980113   9.5721673  55.8366493  24.5980113   9.0511673  56.3866493
  24.0750113   3.3681673  51.6646493  23.9200113   3.9781673  52.2686493
  24.6090113   2.8101673  52.0706493  24.1310113   3.3761673  51.8136493
  27.6850113   6.0971673  48.1916493  27.2060113   6.3951673  47.5256493
  27.3290113   5.3211673  48.3696493  27.5620113   6.0261673  48.1196493
  21.6820113   3.8151673  46.7536493  20.8350113   3.6211673  46.8346493
  22.0060113   3.6501673  47.5466493  21.6040113   3.7621673  46.8826493
  18.4340113  10.5451673  37.6396493  18.8730113   9.8481673  37.9276493
  18.6410113  11.1691673  38.2126493  18.5300113  10.5341673  37.7666493
  15.5300113   3.5081673  49.0696493  16.2520113   3.9961673  49.0326493
  15.2600113   3.4781673  48.2406493  15.5970113   3.5761673  48.9416493
  31.3770113  10.2631673  40.1316493  32.0710113   9.7961673  39.8836493
  30.8380113   9.6651673  40.4686493  31.4000113  10.1051673  40.1446493
  28.6160113   3.0391673  49.3106493  28.6090113   2.2631673  49.7086493
  27.7750113   3.2731673  49.3036493  28.4910113   2.9591673  49.3686493
  14.9250113   4.5601673  53.3476493  14.5040113   4.0421673  52.7866493
  14.5730113   5.3461673  53.2046493  14.8110113   4.6001673  53.2436493
  29.8720113   3.1101673  46.7476493  29.5860113   3.5111673  47.4676493
  30.7320113   3.0481673  46.8746493  29.9570113   3.1601673  46.8726493
  31.0030113   8.7431673  47.2766493  31.2930113   9.0001673  46.4956493
  31.6980113   8.8391673  47.7956493  31.1490113   8.7951673  47.2376493
  27.6080113   7.3461673  39.2586493  27.9420113   6.5401673  39.2936493
  26.8530113   7.2741673  39.6886493  27.5460113   7.2161673  39.3276493
  30.5300113   5.1401673  52.6696493  31.1580113   4.5911673  52.4136493
  30.4690113   5.7051673  52.0076493  30.6140113   5.1431673  52.5336493
  24.9820113   5.2211673  38.6616493  25.6660113   4.7071673  38.4926493
  24.5650113   5.2671673  37.8966493  25.0210113   5.1521673  38.5236493
  19.6640113   6.3711673  49.9656493  19.3660113   6.9631673  50.5326493
  19.7190113   6.8131673  49.2166493  19.6280113   6.5241673  49.9386493
  17.6430113   5.3211673  53.3636493  16.8370113   5.0311673  53.5306493
  17.5540113   6.1891673  53.3696493  17.5110113   5.4061673  53.3886493
  22.1800113   2.7941673  49.4566493  22.6560113   3.1681673  50.0846493
  21.3570113   2.9281673  49.7156493  22.1290113   2.8691673  49.5876493
  21.4440113  10.1871673  44.6846493  21.9900113  10.8661673  44.7386493
  21.0940113  10.2691673  43.8896493  21.4730113  10.3001673  44.5746493
  19.6270113   8.4151673  48.0736493  19.0030113   8.9971673  47.8916493
  19.8750113   8.1291673  47.2876493  19.5710113   8.4591673  47.9306493
  23.9360113   5.0491673  55.0626493  24.6930113   5.3351673  54.7366493
  23.3890113   5.1011673  54.3846493  23.9670113   5.0991673  54.9136493
  27.8450113   7.5991673  53.5666493  28.1910113   7.8691673  54.3206493
  28.1390113   8.1811673  52.9866493  27.9400113   7.7251673  53.5926493
  21.2210113   3.1911673  37.9886493  20.4160113   3.0141673  37.7036493
  21.1880113   4.0421673  38.1806493  21.0970113   3.2901673  37.9756493
  22.2800113  10.0641673  53.9536493  22.7580113   9.4641673  53.5376493
  21.9290113   9.6211673  54.6186493  22.2990113   9.9101673  53.9906493
  28.8680113   3.3711673  42.1346493  29.3440113   2.6421673  42.0866493
  28.0470113   3.0851673  42.0586493  28.8170113   3.2211673  42.1156493
  22.3390113   5.2831673  52.9736493  21.5440113   5.2191673  53.3246493
  22.4100113   6.1301673  52.7786493  22.2320113   5.3981673  52.9966493
  18.1690113  11.4901673  48.2906493  18.1800113  11.5491673  49.1606493
  17.7440113  10.7431673  48.1406493  18.1080113  11.3881673  48.3966493
  25.0840113   4.5381673  44.4896493  25.1600113   4.8791673  45.2886493
  25.2530113   3.6911673  44.6106493  25.1200113   4.4631673  44.6256493
  22.6060113   3.8121673  44.0546493  22.3080113   3.4971673  44.8116493
  23.3010113   4.2851673  44.2896493  22.6650113   3.8351673  44.2016493
  22.8280113   7.9301673  52.0816493  23.5150113   7.8161673  52.6066493
  22.9620113   8.7211673  51.7376493  22.9490113   8.0301673  52.1086493
  14.9330113  10.9881673  53.7326493  14.2790113  10.4191673  53.8306493
  14.5580113  11.7611673  53.8836493  14.7810113  11.0181673  53.7696493
  23.4510113   2.3941673  55.6556493  23.7740113   3.0801673  55.2236493
  22.7470113   2.7171673  56.0576493  23.3940113   2.5431673  55.6506493
  26.5350113  10.7681673  46.5846493  26.0840113  11.4111673  46.9636493
  27.2430113  10.6891673  47.0896493  26.5730113  10.8511673  46.7156493
  23.2360113   5.8581673  49.5146493  22.5420113   6.2601673  49.8576493
  23.9130113   6.2911673  49.8536493  23.2330113   5.9811673  49.6156493
  28.6130113   8.4511673  56.0946493  29.3890113   8.0611673  56.1776493
  28.1440113   8.1151673  56.7496493  28.6580113   8.3441673  56.2036493
  23.5580113   7.4491673  42.6836493  23.3530113   8.2821673  42.5246493
  22.7830113   7.0671673  42.8056493  23.4130113   7.5161673  42.6786493
  13.4760113   3.0701673  51.3606493  13.7960113   3.2891673  50.5796493
  13.3760113   2.2051673  51.3056493  13.5080113   2.9751673  51.2376493
  18.9200113   7.7111673  39.0926493  19.3610113   7.7911673  39.8406493
  18.1150113   7.4951673  39.3506493  18.8660113   7.6911673  39.2416493
  18.2390113   2.3621673  52.7456493  17.8430113   3.1361673  52.8206493
  17.8330113   1.9891673  52.0696493  18.1210113   2.4211673  52.6566493
  27.8280113   9.4821673  42.6666493  27.6540113   8.8281673  43.2166493
  28.5410113   9.2111673  42.2436493  27.9080113   9.3451673  42.6856493
  16.2490113   6.7811673  39.6936493  16.0050113   6.4741673  40.4736493
  16.2160113   6.0781673  39.1776493  16.2080113   6.6321673  39.7326493
  19.0680113   5.0261673  38.4366493  18.2500113   4.7581673  38.5766493
  19.0400113   5.8781673  38.6216493  18.9430113   5.1131673  38.4846493
  25.5030113   6.9351673  50.3576493  25.7090113   7.2361673  51.1496493
  25.4420113   7.6571673  49.8726493  25.5240113   7.0861673  50.4026493
  25.0370113  11.1491673  54.6036493  24.2840113  11.1311673  54.1626493
  25.2050113  12.0011673  54.6876493  24.9510113  11.2721673  54.5506493
  30.3150113   5.5741673  49.8156493  30.2830113   4.7121673  49.6806493
  29.6220113   5.8761673  49.3816493  30.2080113   5.4911673  49.7316493
  18.7090113  10.7721673  54.0216493  18.7500113  10.8981673  54.8846493
  19.3600113  10.2121673  53.8656493  18.8110113  10.7081673  54.1266493
  28.4200113   8.8341673  48.6126493  28.9470113   8.7511673  47.9216493
  28.0290113   8.0561673  48.6666493  28.4400113   8.7071673  48.5186493
  16.3020113   9.1551673  55.3816493  16.8970113   9.5861673  55.8536493
  15.9380113   9.7791673  54.8926493  16.3360113   9.3111673  55.3786493
  14.2290113   7.1441673  52.3106493  13.6550113   7.5601673  52.8196493
  14.9620113   7.6091673  52.4056493  14.2530113   7.2741673  52.3996493
  16.0150113  10.4111673  41.0856493  15.8700113  10.5671673  40.2396493
  16.8810113  10.4901673  41.1636493  16.1220113  10.4461673  40.9726493
  20.1820113   2.8081673  40.8136493  20.2820113   2.9471673  39.9586493
  21.0000113   2.7481673  41.1096493  20.3170113   2.8191673  40.7306493
  29.3420113  10.8721673  38.2936493  29.9790113  10.7381673  38.8746493
  29.0010113  10.0781673  38.1766493  29.3860113  10.7351673  38.3616493
  29.5370113   3.2901673  55.0266493  30.1710113   3.1201673  55.6006493
  29.9540113   3.6931673  54.3746493  29.6920113   3.3251673  55.0156493
  25.4170113   7.1371673  40.6156493  25.1660113   7.0091673  41.4416493
  25.1000113   6.4421673  40.1946493  25.3330113   7.0161673  40.6756493
  26.9480113   3.4011673  56.3816493  27.8190113   3.3651673  56.3456493
  26.7290113   3.8211673  55.6496493  27.0450113   3.4571673  56.2686493
  16.7020113   9.2261673  47.5626493  16.6230113   8.4161673  47.2466493
  16.2580113   9.7131673  46.9906493  16.6250113   9.1781673  47.4316493
  22.3030113   5.3451673  40.0456493  23.0200113   4.9981673  39.6896493
  22.2690113   6.1451673  39.6976493  22.4040113   5.4121673  39.9416493
  14.2740113  11.4701673  51.1436493  14.7670113  11.4141673  51.8616493
  14.4620113  10.7371673  50.7086493  14.3750113  11.3531673  51.1856493
  13.3900113   5.0421673  24.4114083  12.9490113   5.1601673  25.1544083
  13.1070113   4.2671673  24.1264083  13.2830113   4.9451673  24.4794083
  29.6650113   8.3431673  21.9264083  30.3660113   7.8241673  21.9224083
  29.0780113   7.8981673  21.4574083  29.6820113   8.2001673  21.8564083
  16.2720113   4.0971673  19.5904083  15.8800113   3.7261673  18.9044083
  16.1920113   3.4991673  20.2194083  16.2020113   3.9541673  19.5814083
  15.8990113   5.7381673  23.4904083  16.5070113   5.5681673  24.0934083
  15.1480113   5.5981673  23.9114083  15.8780113   5.6921673  23.6414083
  14.7900113   8.8291673  19.5674083  15.2570113   8.9131673  18.8354083
  15.2450113   8.2511673  20.0364083  14.9260113   8.7561673  19.5284083
  13.3300113   7.7771673  30.6664083  13.4590113   7.4971673  31.4824083
  12.7200113   7.2361673  30.3574083  13.2590113   7.6561673  30.7414083
  19.9040113   5.3021673  35.7334083  19.6680113   5.2991673  36.5734083
  19.1560113   5.1541673  35.3094083  19.7580113   5.2791673  35.7944083
  14.7760113   2.2981673  24.8684083  14.3140113   1.9061673  24.2414083
  15.4760113   1.7851673  24.9604083  14.8110113   2.1651673  24.7894083
  19.8860113   8.4941673  32.9964083  20.0240113   9.2541673  32.5894083
  20.6770113   8.1291673  33.0234083  20.0230113   8.5531673  32.9404083
  20.9810113   6.3791673  27.5014083  21.3290113   5.5801673  27.5314083
  21.6460113   6.8831673  27.2464083  21.1310113   6.3351673  27.4684083
  21.0380113   5.8281673  23.7124083  21.3690113   5.1841673  24.1984083
  21.2780113   5.6171673  22.9014083  21.1220113   5.7021673  23.6644083
  13.1420113   9.7691673  25.7814083  12.5500113  10.3271673  25.4684083
  13.5680113   9.5001673  25.0694083  13.1180113   9.8111673  25.6304083
  18.9820113   7.6131673  23.2614083  18.4030113   7.3381673  23.8534083
  19.6060113   7.0041673  23.2864083  18.9890113   7.4831673  23.3524083
  25.1250113   9.9011673  20.7834083  25.8520113  10.3731673  20.8854083
  25.3540113   9.1071673  21.0634083  25.2670113   9.8541673  20.8404083
  23.2930113  10.2931673  22.7734083  23.5070113  10.8201673  23.4354083
  24.0600113  10.1191673  22.3944083  23.4380113  10.3451673  22.8154083
  14.6870113   8.4391673  23.7124083  15.3430113   7.8641673  23.7274083
  15.0760113   9.1881673  23.4914083  14.8420113   8.4641673  23.6824083
  25.7320113  10.3031673  31.0784083  26.4760113  10.7591673  31.0684083
  25.6110113  10.0891673  30.2414083  25.8240113  10.3391673  30.9534083
  15.5050113   6.9261673  27.2124083  15.9280113   6.5701673  26.5384083
  15.8290113   6.5041673  27.9044083  15.6150113   6.8111673  27.2154083
  18.7360113   9.7781673  26.5084083  19.5800113   9.8821673  26.3134083
  18.4390113  10.5961673  26.5764083  18.8170113   9.9141673  26.4894083
  27.3060113  11.4881673  21.1834083  27.9710113  11.3401673  20.6384083
  27.6660113  11.4051673  21.9734083  27.4580113  11.4541673  21.2194083
  17.7340113  10.9971673  32.2484083  18.0260113  10.9301673  33.0684083
  17.1080113  10.3921673  32.2034083  17.6850113  10.8981673  32.3634083
  24.9860113   7.4881673  34.7824083  24.9520113   7.8701673  35.5664083
  25.8400113   7.4461673  34.6114083  25.1070113   7.5381673  34.8734083
  22.1240113   7.6851673  19.5324083  21.9430113   8.2301673  20.1894083
  22.8900113   7.9751673  19.2314083  22.2100113   7.8091673  19.5854083
  15.7270113   9.1591673  31.3704083  15.0290113   8.6511673  31.4964083
  15.9870113   8.9541673  30.5624083  15.6620113   9.0541673  31.2694083
  23.4380113  10.6521673  32.2804083  24.2060113  10.5721673  31.8744083
  22.8550113  10.5311673  31.6424083  23.4650113  10.6221673  32.1264083
  29.7150113  11.2551673  25.1814083  29.2600113  11.9721673  25.3824083
  29.1010113  10.6841673  24.9394083  29.5570113  11.2771673  25.1754083
  26.7120113   7.1001673  24.7254083  27.4130113   6.6181673  24.9144083
  26.0520113   6.5311673  24.7704083  26.7180113   6.9451673  24.7594083
  17.0880113   8.0101673  33.9374083  17.9290113   8.0731673  33.7154083
  17.0510113   8.4071673  34.7134083  17.2070113   8.0781673  34.0194083
  19.0510113   3.5211673  28.6864083  19.2230113   3.3111673  29.5154083
  18.3960113   2.9871673  28.4704083  18.9800113   3.4111673  28.7774083
  19.8010113   3.4591673  31.2764083  19.8540113   4.3061673  31.4784083
  19.5160113   3.0891673  32.0134083  19.7670113   3.5291673  31.4144083
  25.9780113   4.1541673  30.4064083  25.4640113   3.7421673  30.9774083
  25.8520113   4.9981673  30.5874083  25.8840113   4.2181673  30.5174083
  12.6220113   7.8301673  37.4874083  13.3780113   8.1791673  37.7454083
  12.7990113   6.9771673  37.4304083  12.7600113   7.7551673  37.5174083
  29.2310113   4.5931673  20.5334083  29.3500113   4.3061673  21.3484083
  30.0380113   4.6141673  20.2034083  29.3670113   4.5541673  20.6054083
  16.3670113   4.3251673  25.8644083  17.2180113   4.2451673  25.6914083
  16.0100113   3.6431673  25.4524083  16.4400113   4.2121673  25.7774083
  15.1340113  11.0501673  27.1014083  14.4610113  10.5521673  26.8564083
  15.5370113  11.2351673  26.3504083  15.0940113  11.0041673  26.9544083
  31.4650113   9.1021673  34.7874083  30.7830113   9.4121673  34.3404083
  31.0960113   8.6441673  35.4324083  31.3090113   9.0801673  34.8164083
  18.7350113   4.3321673  24.0994083  19.4480113   4.8271673  24.1894083
  18.9570113   3.7651673  23.4734083  18.8730113   4.3211673  24.0204083
  12.8910113   5.9751673  27.4194083  12.2240113   6.4631673  27.6954083
  13.5710113   6.5201673  27.4484083  12.8930113   6.1271673  27.4644083
  12.9570113   2.6591673  22.5224083  12.7720113   1.8201673  22.6744083
  13.6160113   2.6231673  21.9524083  13.0270113   2.5301673  22.4604083
  23.2580113   8.0351673  26.4264083  22.7350113   8.6691673  26.1334083
  23.5680113   7.6711673  25.6974083  23.2260113   8.0751673  26.2754083
  13.1290113   6.8231673  22.0974083  13.6810113   7.3921673  22.4614083
  12.8970113   6.3081673  22.7624083  13.1760113   6.8311673  22.2494083
  17.3330113   5.8231673  29.1864083  17.8000113   6.1121673  29.8644083
  17.9050113   5.3451673  28.7324083  17.4870113   5.7951673  29.2194083
  12.9590113   5.2721673  19.7254083  13.7150113   4.8401673  19.7834083
  12.9740113   5.8041673  20.4164083  13.0730113   5.2871673  19.8364083
  13.8990113   3.4931673  27.7304083  14.3300113   3.3641673  26.9834083
  13.6940113   4.3411673  27.7044083  13.9320113   3.5991673  27.6164083
  29.2990113   9.4841673  32.8774083  28.6280113   9.9981673  33.0954083
  29.3620113   9.5841673  32.0134083  29.2090113   9.5751673  32.7824083
  17.9830113   7.0091673  26.0124083  18.1090113   7.8521673  26.1994083
  18.6510113   6.6101673  26.4084083  18.1010113   7.0751673  26.0984083
  21.2950113  10.2331673  30.4734083  21.0180113   9.5921673  29.9504083
  21.0870113  10.9591673  30.0354083  21.2240113  10.2461673  30.3314083
  14.9940113   2.8111673  36.6404083  14.9570113   3.3121673  35.9264083
  15.3250113   2.0591673  36.3454083  15.0370113   2.7731673  36.4914083
  26.5970113   5.0161673  34.8984083  27.0810113   5.7341673  34.9964083
  26.9910113   4.5891673  34.2474083  26.7270113   5.0591673  34.8164083
  20.8930113   7.8611673  36.0754083  21.2470113   7.6831673  36.8524083
  20.4570113   7.1321673  35.8764083  20.8810113   7.7271673  36.1614083
  24.0540113   1.7771673  20.9874083  24.0460113   2.4991673  20.4974083
  23.4150113   1.9121673  21.5644083  23.9590113   1.9041673  21.0004083
  29.0260113   5.6471673  24.9684083  29.3820113   5.2971673  25.6834083
  29.0180113   4.9861673  24.3984083  29.0780113   5.4971673  24.9894083
  25.0710113   8.7131673  28.8124083  24.4680113   8.4171673  28.2554083
  25.6160113   9.1651673  28.3034083  25.0620113   8.7361673  28.6544083
  25.0840113   5.5641673  28.2124083  24.2870113   5.7881673  28.4864083
  25.3420113   4.9701673  28.7974083  25.0040113   5.5091673  28.3394083
  18.9760113  10.3761673  22.6604083  18.8290113   9.6001673  23.0314083
  19.6650113  10.2291673  22.1454083  19.0560113  10.2391673  22.6394083
  21.2680113   9.8921673  21.0624083  21.8900113  10.0551673  21.6524083
  21.3040113  10.5831673  20.5304083  21.3650113  10.0181673  21.0714083
  28.3440113   3.5621673  33.0584083  28.3990113   3.6871673  32.1964083
  29.0970113   3.8821673  33.3604083  28.4630113   3.6271673  32.9754083
  24.5350113   8.9111673  37.3354083  24.6990113   9.1941673  38.1444083
  24.7980113   9.5721673  36.8304083  24.5980113   9.0511673  37.3804083
  24.0750113   3.3681673  32.6584083  23.9200113   3.9781673  33.2624083
  24.6090113   2.8101673  33.0644083  24.1310113   3.3761673  32.8074083
  27.6850113   6.0971673  29.1854083  27.2060113   6.3951673  28.5194083
  27.3290113   5.3211673  29.3634083  27.5620113   6.0261673  29.1134083
  21.6820113   3.8151673  27.7474083  20.8350113   3.6211673  27.8284083
  22.0060113   3.6501673  28.5404083  21.6040113   3.7621673  27.8764083
  18.4340113  10.5451673  18.6334083  18.8730113   9.8481673  18.9214083
  18.6410113  11.1691673  19.2064083  18.5300113  10.5341673  18.7604083
  15.5300113   3.5081673  30.0634083  16.2520113   3.9961673  30.0264083
  15.2600113   3.4781673  29.2344083  15.5970113   3.5761673  29.9354083
  31.3770113  10.2631673  21.1254083  32.0710113   9.7961673  20.8774083
  30.8380113   9.6651673  21.4624083  31.4000113  10.1051673  21.1384083
  28.6160113   3.0391673  30.3044083  28.6090113   2.2631673  30.7024083
  27.7750113   3.2731673  30.2974083  28.4910113   2.9591673  30.3624083
  14.9250113   4.5601673  34.3414083  14.5040113   4.0421673  33.7804083
  14.5730113   5.3461673  34.1984083  14.8110113   4.6001673  34.2374083
  29.8720113   3.1101673  27.7414083  29.5860113   3.5111673  28.4614083
  30.7320113   3.0481673  27.8684083  29.9570113   3.1601673  27.8664083
  31.0030113   8.7431673  28.2704083  31.2930113   9.0001673  27.4894083
  31.6980113   8.8391673  28.7894083  31.1490113   8.7951673  28.2314083
  27.6080113   7.3461673  20.2524083  27.9420113   6.5401673  20.2874083
  26.8530113   7.2741673  20.6824083  27.5460113   7.2161673  20.3214083
  30.5300113   5.1401673  33.6634083  31.1580113   4.5911673  33.4074083
  30.4690113   5.7051673  33.0014083  30.6140113   5.1431673  33.5274083
  24.9820113   5.2211673  19.6554083  25.6660113   4.7071673  19.4864083
  24.5650113   5.2671673  18.8904083  25.0210113   5.1521673  19.5174083
  19.6640113   6.3711673  30.9594083  19.3660113   6.9631673  31.5264083
  19.7190113   6.8131673  30.2104083  19.6280113   6.5241673  30.9324083
  17.6430113   5.3211673  34.3574083  16.8370113   5.0311673  34.5244083
  17.5540113   6.1891673  34.3634083  17.5110113   5.4061673  34.3824083
  22.1800113   2.7941673  30.4504083  22.6560113   3.1681673  31.0784083
  21.3570113   2.9281673  30.7094083  22.1290113   2.8691673  30.5814083
  21.4440113  10.1871673  25.6784083  21.9900113  10.8661673  25.7324083
  21.0940113  10.2691673  24.8834083  21.4730113  10.3001673  25.5684083
  19.6270113   8.4151673  29.0674083  19.0030113   8.9971673  28.8854083
  19.8750113   8.1291673  28.2814083  19.5710113   8.4591673  28.9244083
  23.9360113   5.0491673  36.0564083  24.6930113   5.3351673  35.7304083
  23.3890113   5.1011673  35.3784083  23.9670113   5.0991673  35.9074083
  27.8450113   7.5991673  34.5604083  28.1910113   7.8691673  35.3144083
  28.1390113   8.1811673  33.9804083  27.9400113   7.7251673  34.5864083
  21.2210113   3.1911673  18.9824083  20.4160113   3.0141673  18.6974083
  21.1880113   4.0421673  19.1744083  21.0970113   3.2901673  18.9694083
  22.2800113  10.0641673  34.9474083  22.7580113   9.4641673  34.5314083
  21.9290113   9.6211673  35.6124083  22.2990113   9.9101673  34.9844083
  28.8680113   3.3711673  23.1284083  29.3440113   2.6421673  23.0804083
  28.0470113   3.0851673  23.0524083  28.8170113   3.2211673  23.1094083
  22.3390113   5.2831673  33.9674083  21.5440113   5.2191673  34.3184083
  22.4100113   6.1301673  33.7724083  22.2320113   5.3981673  33.9904083
  18.1690113  11.4901673  29.2844083  18.1800113  11.5491673  30.1544083
  17.7440113  10.7431673  29.1344083  18.1080113  11.3881673  29.3904083
  25.0840113   4.5381673  25.4834083  25.1600113   4.8791673  26.2824083
  25.2530113   3.6911673  25.6044083  25.1200113   4.4631673  25.6194083
  22.6060113   3.8121673  25.0484083  22.3080113   3.4971673  25.8054083
  23.3010113   4.2851673  25.2834083  22.6650113   3.8351673  25.1954083
  22.8280113   7.9301673  33.0754083  23.5150113   7.8161673  33.6004083
  22.9620113   8.7211673  32.7314083  22.9490113   8.0301673  33.1024083
  14.9330113  10.9881673  34.7264083  14.2790113  10.4191673  34.8244083
  14.5580113  11.7611673  34.8774083  14.7810113  11.0181673  34.7634083
  23.4510113   2.3941673  36.6494083  23.7740113   3.0801673  36.2174083
  22.7470113   2.7171673  37.0514083  23.3940113   2.5431673  36.6444083
  26.5350113  10.7681673  27.5784083  26.0840113  11.4111673  27.9574083
  27.2430113  10.6891673  28.0834083  26.5730113  10.8511673  27.7094083
  23.2360113   5.8581673  30.5084083  22.5420113   6.2601673  30.8514083
  23.9130113   6.2911673  30.8474083  23.2330113   5.9811673  30.6094083
  28.6130113   8.4511673  37.0884083  29.3890113   8.0611673  37.1714083
  28.1440113   8.1151673  37.7434083  28.6580113   8.3441673  37.1974083
  23.5580113   7.4491673  23.6774083  23.3530113   8.2821673  23.5184083
  22.7830113   7.0671673  23.7994083  23.4130113   7.5161673  23.6724083
  13.4760113   3.0701673  32.3544083  13.7960113   3.2891673  31.5734083
  13.3760113   2.2051673  32.2994083  13.5080113   2.9751673  32.2314083
  18.9200113   7.7111673  20.0864083  19.3610113   7.7911673  20.8344083
  18.1150113   7.4951673  20.3444083  18.8660113   7.6911673  20.2354083
  18.2390113   2.3621673  33.7394083  17.8430113   3.1361673  33.8144083
  17.8330113   1.9891673  33.0634083  18.1210113   2.4211673  33.6504083
  27.8280113   9.4821673  23.6604083  27.6540113   8.8281673  24.2104083
  28.5410113   9.2111673  23.2374083  27.9080113   9.3451673  23.6794083
  16.2490113   6.7811673  20.6874083  16.0050113   6.4741673  21.4674083
  16.2160113   6.0781673  20.1714083  16.2080113   6.6321673  20.7264083
  19.0680113   5.0261673  19.4304083  18.2500113   4.7581673  19.5704083
  19.0400113   5.8781673  19.6154083  18.9430113   5.1131673  19.4784083
  25.5030113   6.9351673  31.3514083  25.7090113   7.2361673  32.1434083
  25.4420113   7.6571673  30.8664083  25.5240113   7.0861673  31.3964083
  25.0370113  11.1491673  35.5974083  24.2840113  11.1311673  35.1564083
  25.2050113  12.0011673  35.6814083  24.9510113  11.2721673  35.5444083
  30.3150113   5.5741673  30.8094083  30.2830113   4.7121673  30.6744083
  29.6220113   5.8761673  30.3754083  30.2080113   5.4911673  30.7254083
  18.7090113  10.7721673  35.0154083  18.7500113  10.8981673  35.8784083
  19.3600113  10.2121673  34.8594083  18.8110113  10.7081673  35.1204083
  28.4200113   8.8341673  29.6064083  28.9470113   8.7511673  28.9154083
  28.0290113   8.0561673  29.6604083  28.4400113   8.7071673  29.5124083
  16.3020113   9.1551673  36.3754083  16.8970113   9.5861673  36.8474083
  15.9380113   9.7791673  35.8864083  16.3360113   9.3111673  36.3724083
  14.2290113   7.1441673  33.3044083  13.6550113   7.5601673  33.8134083
  14.9620113   7.6091673  33.3994083  14.2530113   7.2741673  33.3934083
  16.0150113  10.4111673  22.0794083  15.8700113  10.5671673  21.2334083
  16.8810113  10.4901673  22.1574083  16.1220113  10.4461673  21.9664083
  20.1820113   2.8081673  21.8074083  20.2820113   2.9471673  20.9524083
  21.0000113   2.7481673  22.1034083  20.3170113   2.8191673  21.7244083
  29.3420113  10.8721673  19.2874083  29.9790113  10.7381673  19.8684083
  29.0010113  10.0781673  19.1704083  29.3860113  10.7351673  19.3554083
  29.5370113   3.2901673  36.0204083  30.1710113   3.1201673  36.5944083
  29.9540113   3.6931673  35.3684083  29.6920113   3.3251673  36.0094083
  25.4170113   7.1371673  21.6094083  25.1660113   7.0091673  22.4354083
  25.1000113   6.4421673  21.1884083  25.3330113   7.0161673  21.6694083
  26.9480113   3.4011673  37.3754083  27.8190113   3.3651673  37.3394083
  26.7290113   3.8211673  36.6434083  27.0450113   3.4571673  37.2624083
  16.7020113   9.2261673  28.5564083  16.6230113   8.4161673  28.2404083
  16.2580113   9.7131673  27.9844083  16.6250113   9.1781673  28.4254083
  22.3030113   5.3451673  21.0394083  23.0200113   4.9981673  20.6834083
  22.2690113   6.1451673  20.6914083  22.4040113   5.4121673  20.9354083
  14.2740113  11.4701673  32.1374083  14.7670113  11.4141673  32.8554083
  14.4620113  10.7371673  31.7024083  14.3750113  11.3531673  32.1794083
  13.3900113   5.0421673   5.4051673  12.9490113   5.1601673   6.1481673
  13.1070113   4.2671673   5.1201673  13.2830113   4.9451673   5.4731673
  29.6650113   8.3431673   2.9201673  30.3660113   7.8241673   2.9161673
  29.0780113   7.8981673   2.4511673  29.6820113   8.2001673   2.8501673
  15.8990113   5.7381673   4.4841673  16.5070113   5.5681673   5.0871673
  15.1480113   5.5981673   4.9051673  15.8780113   5.6921673   4.6351673
  13.3300113   7.7771673  11.6601673  13.4590113   7.4971673  12.4761673
  12.7200113   7.2361673  11.3511673  13.2590113   7.6561673  11.7351673
  19.9040113   5.3021673  16.7271673  19.6680113   5.2991673  17.5671673
  19.1560113   5.1541673  16.3031673  19.7580113   5.2791673  16.7881673
  14.7760113   2.2981673   5.8621673  14.3140113   1.9061673   5.2351673
  15.4760113   1.7851673   5.9541673  14.8110113   2.1651673   5.7831673
  19.8860113   8.4941673  13.9901673  20.0240113   9.2541673  13.5831673
  20.6770113   8.1291673  14.0171673  20.0230113   8.5531673  13.9341673
  20.9810113   6.3791673   8.4951673  21.3290113   5.5801673   8.5251673
  21.6460113   6.8831673   8.2401673  21.1310113   6.3351673   8.4621673
  21.0380113   5.8281673   4.7061673  21.3690113   5.1841673   5.1921673
  21.2780113   5.6171673   3.8951673  21.1220113   5.7021673   4.6581673
  13.1420113   9.7691673   6.7751673  12.5500113  10.3271673   6.4621673
  13.5680113   9.5001673   6.0631673  13.1180113   9.8111673   6.6241673
  18.9820113   7.6131673   4.2551673  18.4030113   7.3381673   4.8471673
  19.6060113   7.0041673   4.2801673  18.9890113   7.4831673   4.3461673
  25.1250113   9.9011673   1.7771673  25.8520113  10.3731673   1.8791673
  25.3540113   9.1071673   2.0571673  25.2670113   9.8541673   1.8341673
  23.2930113  10.2931673   3.7671673  23.5070113  10.8201673   4.4291673
  24.0600113  10.1191673   3.3881673  23.4380113  10.3451673   3.8091673
  14.6870113   8.4391673   4.7061673  15.3430113   7.8641673   4.7211673
  15.0760113   9.1881673   4.4851673  14.8420113   8.4641673   4.6761673
  25.7320113  10.3031673  12.0721673  26.4760113  10.7591673  12.0621673
  25.6110113  10.0891673  11.2351673  25.8240113  10.3391673  11.9471673
  15.5050113   6.9261673   8.2061673  15.9280113   6.5701673   7.5321673
  15.8290113   6.5041673   8.8981673  15.6150113   6.8111673   8.2091673
  18.7360113   9.7781673   7.5021673  19.5800113   9.8821673   7.3071673
  18.4390113  10.5961673   7.5701673  18.8170113   9.9141673   7.4831673
  27.3060113  11.4881673   2.1771673  27.9710113  11.3401673   1.6321673
  27.6660113  11.4051673   2.9671673  27.4580113  11.4541673   2.2131673
  17.7340113  10.9971673  13.2421673  18.0260113  10.9301673  14.0621673
  17.1080113  10.3921673  13.1971673  17.6850113  10.8981673  13.3571673
  24.9860113   7.4881673  15.7761673  24.9520113   7.8701673  16.5601673
  25.8400113   7.4461673  15.6051673  25.1070113   7.5381673  15.8671673
  15.7270113   9.1591673  12.3641673  15.0290113   8.6511673  12.4901673
  15.9870113   8.9541673  11.5561673  15.6620113   9.0541673  12.2631673
  23.4380113  10.6521673  13.2741673  24.2060113  10.5721673  12.8681673
  22.8550113  10.5311673  12.6361673  23.4650113  10.6221673  13.1201673
  29.7150113  11.2551673   6.1751673  29.2600113  11.9721673   6.3761673
  29.1010113  10.6841673   5.9331673  29.5570113  11.2771673   6.1691673
  26.7120113   7.1001673   5.7191673  27.4130113   6.6181673   5.9081673
  26.0520113   6.5311673   5.7641673  26.7180113   6.9451673   5.7531673
  17.0880113   8.0101673  14.9311673  17.9290113   8.0731673  14.7091673
  17.0510113   8.4071673  15.7071673  17.2070113   8.0781673  15.0131673
  19.0510113   3.5211673   9.6801673  19.2230113   3.3111673  10.5091673
  18.3960113   2.9871673   9.4641673  18.9800113   3.4111673   9.7711673
  19.8010113   3.4591673  12.2701673  19.8540113   4.3061673  12.4721673
  19.5160113   3.0891673  13.0071673  19.7670113   3.5291673  12.4081673
  25.9780113   4.1541673  11.4001673  25.4640113   3.7421673  11.9711673
  25.8520113   4.9981673  11.5811673  25.8840113   4.2181673  11.5111673
  12.6220113   7.8301673  18.4811673  13.3780113   8.1791673  18.7391673
  12.7990113   6.9771673  18.4241673  12.7600113   7.7551673  18.5111673
  16.3670113   4.3251673   6.8581673  17.2180113   4.2451673   6.6851673
  16.0100113   3.6431673   6.4461673  16.4400113   4.2121673   6.7711673
  15.1340113  11.0501673   8.0951673  14.4610113  10.5521673   7.8501673
  15.5370113  11.2351673   7.3441673  15.0940113  11.0041673   7.9481673
  31.4650113   9.1021673  15.7811673  30.7830113   9.4121673  15.3341673
  31.0960113   8.6441673  16.4261673  31.3090113   9.0801673  15.8101673
  18.7350113   4.3321673   5.0931673  19.4480113   4.8271673   5.1831673
  18.9570113   3.7651673   4.4671673  18.8730113   4.3211673   5.0141673
  12.8910113   5.9751673   8.4131673  12.2240113   6.4631673   8.6891673
  13.5710113   6.5201673   8.4421673  12.8930113   6.1271673   8.4581673
  12.9570113   2.6591673   3.5161673  12.7720113   1.8201673   3.6681673
  13.6160113   2.6231673   2.9461673  13.0270113   2.5301673   3.4541673
  23.2580113   8.0351673   7.4201673  22.7350113   8.6691673   7.1271673
  23.5680113   7.6711673   6.6911673  23.2260113   8.0751673   7.2691673
  13.1290113   6.8231673   3.0911673  13.6810113   7.3921673   3.4551673
  12.8970113   6.3081673   3.7561673  13.1760113   6.8311673   3.2431673
  17.3330113   5.8231673  10.1801673  17.8000113   6.1121673  10.8581673
  17.9050113   5.3451673   9.7261673  17.4870113   5.7951673  10.2131673
  13.8990113   3.4931673   8.7241673  14.3300113   3.3641673   7.9771673
  13.6940113   4.3411673   8.6981673  13.9320113   3.5991673   8.6101673
  29.2990113   9.4841673  13.8711673  28.6280113   9.9981673  14.0891673
  29.3620113   9.5841673  13.0071673  29.2090113   9.5751673  13.7761673
  17.9830113   7.0091673   7.0061673  18.1090113   7.8521673   7.1931673
  18.6510113   6.6101673   7.4021673  18.1010113   7.0751673   7.0921673
  21.2950113  10.2331673  11.4671673  21.0180113   9.5921673  10.9441673
  21.0870113  10.9591673  11.0291673  21.2240113  10.2461673  11.3251673
  14.9940113   2.8111673  17.6341673  14.9570113   3.3121673  16.9201673
  15.3250113   2.0591673  17.3391673  15.0370113   2.7731673  17.4851673
  26.5970113   5.0161673  15.8921673  27.0810113   5.7341673  15.9901673
  26.9910113   4.5891673  15.2411673  26.7270113   5.0591673  15.8101673
  20.8930113   7.8611673  17.0691673  21.2470113   7.6831673  17.8461673
  20.4570113   7.1321673  16.8701673  20.8810113   7.7271673  17.1551673
  29.0260113   5.6471673   5.9621673  29.3820113   5.2971673   6.6771673
  29.0180113   4.9861673   5.3921673  29.0780113   5.4971673   5.9831673
  25.0710113   8.7131673   9.8061673  24.4680113   8.4171673   9.2491673
  25.6160113   9.1651673   9.2971673  25.0620113   8.7361673   9.6481673
  25.0840113   5.5641673   9.2061673  24.2870113   5.7881673   9.4801673
  25.3420113   4.9701673   9.7911673  25.0040113   5.5091673   9.3331673
  18.9760113  10.3761673   3.6541673  18.8290113   9.6001673   4.0251673
  19.6650113  10.2291673   3.1391673  19.0560113  10.2391673   3.6331673
  28.3440113   3.5621673  14.0521673  28.3990113   3.6871673  13.1901673
  29.0970113   3.8821673  14.3541673  28.4630113   3.6271673  13.9691673
  24.5350113   8.9111673  18.3291673  24.6990113   9.1941673  19.1381673
  24.7980113   9.5721673  17.8241673  24.5980113   9.0511673  18.3741673
  24.0750113   3.3681673  13.6521673  23.9200113   3.9781673  14.2561673
  24.6090113   2.8101673  14.0581673  24.1310113   3.3761673  13.8011673
  27.6850113   6.0971673  10.1791673  27.2060113   6.3951673   9.5131673
  27.3290113   5.3211673  10.3571673  27.5620113   6.0261673  10.1071673
  21.6820113   3.8151673   8.7411673  20.8350113   3.6211673   8.8221673
  22.0060113   3.6501673   9.5341673  21.6040113   3.7621673   8.8701673
  15.5300113   3.5081673  11.0571673  16.2520113   3.9961673  11.0201673
  15.2600113   3.4781673  10.2281673  15.5970113   3.5761673  10.9291673
  31.3770113  10.2631673   2.1191673  32.0710113   9.7961673   1.8711673
  30.8380113   9.6651673   2.4561673  31.4000113  10.1051673   2.1321673
  28.6160113   3.0391673  11.2981673  28.6090113   2.2631673  11.6961673
  27.7750113   3.2731673  11.2911673  28.4910113   2.9591673  11.3561673
  14.9250113   4.5601673  15.3351673  14.5040113   4.0421673  14.7741673
  14.5730113   5.3461673  15.1921673  14.8110113   4.6001673  15.2311673
  29.8720113   3.1101673   8.7351673  29.5860113   3.5111673   9.4551673
  30.7320113   3.0481673   8.8621673  29.9570113   3.1601673   8.8601673
  31.0030113   8.7431673   9.2641673  31.2930113   9.0001673   8.4831673
  31.6980113   8.8391673   9.7831673  31.1490113   8.7951673   9.2251673
  30.5300113   5.1401673  14.6571673  31.1580113   4.5911673  14.4011673
  30.4690113   5.7051673  13.9951673  30.6140113   5.1431673  14.5211673
  19.6640113   6.3711673  11.9531673  19.3660113   6.9631673  12.5201673
  19.7190113   6.8131673  11.2041673  19.6280113   6.5241673  11.9261673
  17.6430113   5.3211673  15.3511673  16.8370113   5.0311673  15.5181673
  17.5540113   6.1891673  15.3571673  17.5110113   5.4061673  15.3761673
  22.1800113   2.7941673  11.4441673  22.6560113   3.1681673  12.0721673
  21.3570113   2.9281673  11.7031673  22.1290113   2.8691673  11.5751673
  21.4440113  10.1871673   6.6721673  21.9900113  10.8661673   6.7261673
  21.0940113  10.2691673   5.8771673  21.4730113  10.3001673   6.5621673
  19.6270113   8.4151673  10.0611673  19.0030113   8.9971673   9.8791673
  19.8750113   8.1291673   9.2751673  19.5710113   8.4591673   9.9181673
  23.9360113   5.0491673  17.0501673  24.6930113   5.3351673  16.7241673
  23.3890113   5.1011673  16.3721673  23.9670113   5.0991673  16.9011673
  27.8450113   7.5991673  15.5541673  28.1910113   7.8691673  16.3081673
  28.1390113   8.1811673  14.9741673  27.9400113   7.7251673  15.5801673
  22.2800113  10.0641673  15.9411673  22.7580113   9.4641673  15.5251673
  21.9290113   9.6211673  16.6061673  22.2990113   9.9101673  15.9781673
  28.8680113   3.3711673   4.1221673  29.3440113   2.6421673   4.0741673
  28.0470113   3.0851673   4.0461673  28.8170113   3.2211673   4.1031673
  22.3390113   5.2831673  14.9611673  21.5440113   5.2191673  15.3121673
  22.4100113   6.1301673  14.7661673  22.2320113   5.3981673  14.9841673
  18.1690113  11.4901673  10.2781673  18.1800113  11.5491673  11.1481673
  17.7440113  10.7431673  10.1281673  18.1080113  11.3881673  10.3841673
  25.0840113   4.5381673   6.4771673  25.1600113   4.8791673   7.2761673
  25.2530113   3.6911673   6.5981673  25.1200113   4.4631673   6.6131673
  22.6060113   3.8121673   6.0421673  22.3080113   3.4971673   6.7991673
  23.3010113   4.2851673   6.2771673  22.6650113   3.8351673   6.1891673
  22.8280113   7.9301673  14.0691673  23.5150113   7.8161673  14.5941673
  22.9620113   8.7211673  13.7251673  22.9490113   8.0301673  14.0961673
  14.9330113  10.9881673  15.7201673  14.2790113  10.4191673  15.8181673
  14.5580113  11.7611673  15.8711673  14.7810113  11.0181673  15.7571673
  23.4510113   2.3941673  17.6431673  23.7740113   3.0801673  17.2111673
  22.7470113   2.7171673  18.0451673  23.3940113   2.5431673  17.6381673
  26.5350113  10.7681673   8.5721673  26.0840113  11.4111673   8.9511673
  27.2430113  10.6891673   9.0771673  26.5730113  10.8511673   8.7031673
  23.2360113   5.8581673  11.5021673  22.5420113   6.2601673  11.8451673
  23.9130113   6.2911673  11.8411673  23.2330113   5.9811673  11.6031673
  28.6130113   8.4511673  18.0821673  29.3890113   8.0611673  18.1651673
  28.1440113   8.1151673  18.7371673  28.6580113   8.3441673  18.1911673
  23.5580113   7.4491673   4.6711673  23.3530113   8.2821673   4.5121673
  22.7830113   7.0671673   4.7931673  23.4130113   7.5161673   4.6661673
  13.4760113   3.0701673  13.3481673  13.7960113   3.2891673  12.5671673
  13.3760113   2.2051673  13.2931673  13.5080113   2.9751673  13.2251673
  18.2390113   2.3621673  14.7331673  17.8430113   3.1361673  14.8081673
  17.8330113   1.9891673  14.0571673  18.1210113   2.4211673  14.6441673
  27.8280113   9.4821673   4.6541673  27.6540113   8.8281673   5.2041673
  28.5410113   9.2111673   4.2311673  27.9080113   9.3451673   4.6731673
  25.5030113   6.9351673  12.3451673  25.7090113   7.2361673  13.1371673
  25.4420113   7.6571673  11.8601673  25.5240113   7.0861673  12.3901673
  25.0370113  11.1491673  16.5911673  24.2840113  11.1311673  16.1501673
  25.2050113  12.0011673  16.6751673  24.9510113  11.2721673  16.5381673
  30.3150113   5.5741673  11.8031673  30.2830113   4.7121673  11.6681673
  29.6220113   5.8761673  11.3691673  30.2080113   5.4911673  11.7191673
  18.7090113  10.7721673  16.0091673  18.7500113  10.8981673  16.8721673
  19.3600113  10.2121673  15.8531673  18.8110113  10.7081673  16.1141673
  28.4200113   8.8341673  10.6001673  28.9470113   8.7511673   9.9091673
  28.0290113   8.0561673  10.6541673  28.4400113   8.7071673  10.5061673
  16.3020113   9.1551673  17.3691673  16.8970113   9.5861673  17.8411673
  15.9380113   9.7791673  16.8801673  16.3360113   9.3111673  17.3661673
  14.2290113   7.1441673  14.2981673  13.6550113   7.5601673  14.8071673
  14.9620113   7.6091673  14.3931673  14.2530113   7.2741673  14.3871673
  16.0150113  10.4111673   3.0731673  15.8700113  10.5671673   2.2271673
  16.8810113  10.4901673   3.1511673  16.1220113  10.4461673   2.9601673
  20.1820113   2.8081673   2.8011673  20.2820113   2.9471673   1.9461673
  21.0000113   2.7481673   3.0971673  20.3170113   2.8191673   2.7181673
  29.5370113   3.2901673  17.0141673  30.1710113   3.1201673  17.5881673
  29.9540113   3.6931673  16.3621673  29.6920113   3.3251673  17.0031673
  25.4170113   7.1371673   2.6031673  25.1660113   7.0091673   3.4291673
  25.1000113   6.4421673   2.1821673  25.3330113   7.0161673   2.6631673
  26.9480113   3.4011673  18.3691673  27.8190113   3.3651673  18.3331673
  26.7290113   3.8211673  17.6371673  27.0450113   3.4571673  18.2561673
  16.7020113   9.2261673   9.5501673  16.6230113   8.4161673   9.2341673
  16.2580113   9.7131673   8.9781673  16.6250113   9.1781673   9.4191673
  22.3030113   5.3451673   2.0331673  23.0200113   4.9981673   1.6771673
  22.2690113   6.1451673   1.6851673  22.4040113   5.4121673   1.9291673
  14.2740113  11.4701673  13.1311673  14.7670113  11.4141673  13.8491673
  14.4620113  10.7371673  12.6961673  14.3750113  11.3531673  13.1731673
   4.8471673  67.8985993  81.3031313   4.6021673  68.3865993  80.6231313
   5.7101673  67.8255993  81.2031313   4.9381673  67.9595993  81.1881313
   4.6561673  74.8145993  85.9741313   4.1321673  75.4105993  86.3371313
   5.0531673  74.4465993  86.6581313   4.6371673  74.8485993  86.1291313
   7.3271673  75.8815993  82.6501313   7.4071673  75.8855993  81.7811313
   6.7431673  75.2495993  82.7991313   7.2521673  75.7885993  82.5441313
   4.1411673  73.8715993  92.0701313   3.2931673  73.7725993  91.8921313
   4.1701673  74.6165993  92.5241313   4.0201673  73.9675993  92.1111313
   8.6991673  66.8315993  91.1841313   8.5411673  67.6005993  90.8021313
   7.9271673  66.6115993  91.5281313   8.5611673  66.9125993  91.1791313
   6.1611673  71.4725993  75.6981313   5.7111673  72.1535993  76.0051313
   6.2751673  70.9685993  76.4011313   6.1121673  71.4985993  75.8471313
  11.5551673  71.4455993  81.9931313  11.2091673  72.1235993  82.4191313
  10.9191673  70.8475993  82.0091313  11.4101673  71.4575993  82.0581313
   3.6781673  73.0875993  81.6141313   3.9651673  72.8555993  80.8241313
   4.4101673  73.1665993  82.0831313   3.8281673  73.0645993  81.5671313
   4.4001673  73.4265993  76.7351313   4.6811673  74.2145993  76.9841313
   3.6241673  73.5915993  76.3721313   4.3271673  73.5675993  76.7181313
  11.2301673  69.7685993  87.3621313  11.9871673  69.8405993  86.9341313
  11.2931673  68.9955993  87.7611313  11.3511673  69.6655993  87.3571313
   6.7661673  69.4935993  77.6051313   7.3061673  68.8115993  77.6811313
   6.8281673  69.8915993  78.3791313   6.8551673  69.4515993  77.7311313
   4.0241673  71.8695993  78.9191313   3.5161673  71.2075993  78.6651313
   4.0761673  72.3735993  78.2091313   3.9571673  71.8465993  78.7771313
   4.0241673  68.8105993  78.8101313   3.5691673  68.4085993  78.1841313
   4.7971673  68.9655993  78.4351313   4.0711673  68.7745993  78.6621313
   2.6221673  71.1775993  83.3321313   2.6961673  71.7455993  82.6741313
   2.7431673  71.6695993  84.0421313   2.6501673  71.3345993  83.3401313
   6.4141673  71.3475993  89.2201313   6.3191673  71.6665993  90.0261313
   5.8211673  70.7085993  89.1821313   6.3121673  71.2995993  89.3341313
   7.6701673  67.2915993  82.0561313   7.7191673  66.9735993  82.8671313
   7.9931673  66.6475993  81.5631313   7.7251673  67.1495993  82.1031313
  10.1341673  71.5275993  90.3641313  10.9061673  71.3025993  90.7011313
   9.6591673  71.7445993  91.0641313  10.1781673  71.5265993  90.5171313
   8.2611673  75.0425993  77.1371313   8.0411673  75.7735993  76.7151313
   7.8131673  75.0935993  77.8841313   8.1621673  75.1575993  77.1851313
  12.4481673  69.9035993  76.5901313  11.7861673  69.3355993  76.6131313
  12.2551673  70.4155993  75.9101313  12.3221673  69.8955993  76.4931313
  12.7711673  74.2815993  89.1461313  12.9861673  73.4815993  88.8701313
  11.9211673  74.3415993  88.9571313  12.6771673  74.1725993  89.0771313
  10.4501673  69.4615993  78.8691313  11.1961673  69.0545993  79.0681313
  10.7131673  70.1765993  78.4441313  10.5991673  69.5075993  78.8361313
   6.9041673  71.7495993  83.9421313   7.2481673  71.9015993  84.7291313
   6.4511673  71.0115993  84.0551313   6.8881673  71.6625993  84.0751313
   8.2251673  73.0815993  86.4961313   7.5631673  73.4095993  86.9591313
   8.4121673  73.7155993  85.9271313   8.1551673  73.2235993  86.4801313
   4.8701673  68.9875993  89.9251313   5.0191673  68.1625993  89.6821313
   5.2491673  69.0425993  90.7091313   4.9481673  68.8735993  90.0051313
   6.4181673  71.0505993  80.0071313   6.9081673  71.7675993  79.9301313
   5.6281673  71.3115993  79.7441313   6.3741673  71.1945993  79.9571313
   3.0001673  72.5205993  85.7321313   3.4801673  73.2195993  85.9401313
   3.3731673  71.8735993  86.1831313   3.1261673  72.5285993  85.8291313
   5.1891673  75.6895993  78.0061313   5.1811673  76.4115993  77.5161313
   4.5501673  75.8245993  78.5831313   5.0941673  75.8165993  78.0191313
   3.5941673  75.6805993  80.3351313   3.6531673  76.3305993  80.9141313
   3.4051673  74.9845993  80.8261313   3.5751673  75.6735993  80.4931313
   9.7511673  76.9515993  87.3231313   9.7441673  76.1755993  87.7211313
   8.9101673  77.1855993  87.3161313   9.6261673  76.8715993  87.3811313
   9.4291673  74.8345993  91.7411313   9.7481673  75.6205993  91.9441313
   9.0591673  74.5645993  92.4841313   9.4221673  74.9105993  91.8811313
   9.2251673  73.0925993  82.9301313   8.4801673  72.7695993  83.2481313
   9.2271673  73.9185993  83.2101313   9.1151673  73.1665993  83.0181313
   8.1371673  69.4225993  90.3911313   8.8811673  69.8745993  90.3281313
   7.5711673  69.8925993  89.9221313   8.1641673  69.5595993  90.3131313
   3.3151673  76.7065993  87.4691313   3.7911673  77.0805993  88.0971313
   2.4921673  76.8405993  87.7281313   3.2641673  76.7815993  87.6001313
   9.4221673  67.4025993  88.0611313   9.1421673  68.2275993  88.0171313
  10.1381673  67.4555993  88.5571313   9.4871673  67.5325993  88.1281313
   1.7771673  68.1175993  90.0901313   2.4821673  68.4375993  89.6881313
   2.0181673  67.3105993  90.3171313   1.9161673  68.0455993  90.0641313
  10.8431673  73.6575993  76.9181313  11.2211673  74.3345993  76.5181313
  10.0011673  73.8815993  76.9491313  10.7741673  73.7905993  76.8631313
   6.3021673  72.2725993  91.7431313   5.6541673  72.7425993  92.0911313
   6.8671673  72.1835993  92.4021313   6.2901673  72.3285993  91.8921313
   5.9901673  73.8095993  88.0411313   6.2921673  74.2295993  88.7441313
   6.0261673  72.9695993  88.2731313   6.0401673  73.7475993  88.1791313
   8.5381673  73.2565993  80.2931313   8.7451673  73.0555993  81.1171313
   9.2941673  73.5245993  79.9511313   8.6801673  73.2665993  80.3641313
   9.5601673  69.3395993  81.7671313   8.8461673  68.8685993  81.9381313
   9.3981673  69.6805993  80.9811313   9.4311673  69.3205993  81.6761313
  10.0031673  77.2835993  80.1471313  10.4791673  76.5545993  80.0991313
   9.1821673  76.9975993  80.0711313   9.9521673  77.1335993  80.1281313
  12.1391673  74.4515993  91.9051313  11.2841673  74.3295993  92.0311313
  12.2921673  74.0565993  91.1421313  12.0351673  74.3745993  91.8111313
   6.6521673  75.1165993  90.4811313   6.3971673  74.3975993  90.9031313
   7.4731673  75.2325993  90.7511313   6.7361673  75.0275993  90.5831313
  10.7731673  74.3965993  79.5891313  10.8761673  74.3385993  78.7251313
  11.5141673  74.0645993  79.9071313  10.8981673  74.3395993  79.5081313
   9.8751673  74.5425993  88.9451313   9.8731673  73.6795993  89.0691313
   9.9421673  74.8665993  89.7521313   9.8851673  74.4625993  89.0821313
   4.7481673  69.5325993  83.5811313   4.0481673  70.0505993  83.5251313
   4.7861673  69.1525993  82.7971313   4.6501673  69.5535993  83.4571313
   8.3461673  70.0485993  86.3811313   9.2011673  70.1475993  86.5261313
   7.9771673  70.6015993  86.9461313   8.4181673  70.1455993  86.4861313
   8.6501673  75.3285993  84.8721313   9.3161673  75.8695993  85.0321313
   8.3051673  75.6395993  84.1331313   8.6971673  75.4545993  84.7871313
  11.8211673  67.8865993  89.5371313  11.7691673  67.8425993  90.4071313
  12.5081673  67.3835993  89.3471313  11.9151673  67.8065993  89.6371313
   3.9061673  69.9995993  86.5821313   3.1691673  69.5455993  86.6951313
   4.4771673  69.5975993  87.1051313   3.8811673  69.8725993  86.6761313
   6.0691673  68.1905993  85.8331313   6.7391673  68.7345993  85.9601313
   5.5661673  68.6145993  85.2601313   6.0941673  68.3335993  85.7671313
   5.4281673  73.9985993  83.3261313   5.9791673  73.3915993  83.6261313
   5.0031673  74.2615993  84.0411313   5.4471673  73.9475993  83.4751313
   7.3981673  75.8295993  79.8881313   7.4661673  74.9795993  80.0691313
   6.5751673  75.9155993  79.6101313   7.2861673  75.7165993  79.8741313
  11.1961673  72.7075993  86.7481313  10.3631673  72.9575993  86.6761313
  11.1401673  71.8675993  86.9771313  11.0651673  72.6205993  86.7711313
   4.8471673  67.8985993  62.2968903   4.6021673  68.3865993  61.6168903
   5.7101673  67.8255993  62.1968903   4.9381673  67.9595993  62.1818903
   4.6561673  74.8145993  66.9678903   4.1321673  75.4105993  67.3308903
   5.0531673  74.4465993  67.6518903   4.6371673  74.8485993  67.1228903
   7.3271673  75.8815993  63.6438903   7.4071673  75.8855993  62.7748903
   6.7431673  75.2495993  63.7928903   7.2521673  75.7885993  63.5378903
   4.1411673  73.8715993  73.0638903   3.2931673  73.7725993  72.8858903
   4.1701673  74.6165993  73.5178903   4.0201673  73.9675993  73.1048903
   8.6991673  66.8315993  72.1778903   8.5411673  67.6005993  71.7958903
   7.9271673  66.6115993  72.5218903   8.5611673  66.9125993  72.1728903
   6.1611673  71.4725993  56.6918903   5.7111673  72.1535993  56.9988903
   6.2751673  70.9685993  57.3948903   6.1121673  71.4985993  56.8408903
  11.5551673  71.4455993  62.9868903  11.2091673  72.1235993  63.4128903
  10.9191673  70.8475993  63.0028903  11.4101673  71.4575993  63.0518903
   3.0841673  68.1615993  73.8348903   3.2621673  67.3525993  73.5598903
   2.9411673  68.6025993  73.0958903   3.0891673  68.1075993  73.6848903
   3.6781673  73.0875993  62.6078903   3.9651673  72.8555993  61.8178903
   4.4101673  73.1665993  63.0768903   3.8281673  73.0645993  62.5608903
   4.4001673  73.4265993  57.7288903   4.6811673  74.2145993  57.9778903
   3.6241673  73.5915993  57.3658903   4.3271673  73.5675993  57.7118903
  11.2301673  69.7685993  68.3558903  11.9871673  69.8405993  67.9278903
  11.2931673  68.9955993  68.7548903  11.3511673  69.6655993  68.3508903
   6.7661673  69.4935993  58.5988903   7.3061673  68.8115993  58.6748903
   6.8281673  69.8915993  59.3728903   6.8551673  69.4515993  58.7248903
   4.0241673  71.8695993  59.9128903   3.5161673  71.2075993  59.6588903
   4.0761673  72.3735993  59.2028903   3.9571673  71.8465993  59.7708903
   4.0241673  68.8105993  59.8038903   3.5691673  68.4085993  59.1778903
   4.7971673  68.9655993  59.4288903   4.0711673  68.7745993  59.6558903
   2.6221673  71.1775993  64.3258903   2.6961673  71.7455993  63.6678903
   2.7431673  71.6695993  65.0358903   2.6501673  71.3345993  64.3338903
   6.4141673  71.3475993  70.2138903   6.3191673  71.6665993  71.0198903
   5.8211673  70.7085993  70.1758903   6.3121673  71.2995993  70.3278903
   7.6701673  67.2915993  63.0498903   7.7191673  66.9735993  63.8608903
   7.9931673  66.6475993  62.5568903   7.7251673  67.1495993  63.0968903
  10.1341673  71.5275993  71.3578903  10.9061673  71.3025993  71.6948903
   9.6591673  71.7445993  72.0578903  10.1781673  71.5265993  71.5108903
   8.2611673  75.0425993  58.1308903   8.0411673  75.7735993  57.7088903
   7.8131673  75.0935993  58.8778903   8.1621673  75.1575993  58.1788903
  12.4481673  69.9035993  57.5838903  11.7861673  69.3355993  57.6068903
  12.2551673  70.4155993  56.9038903  12.3221673  69.8955993  57.4868903
  12.7711673  74.2815993  70.1398903  12.9861673  73.4815993  69.8638903
  11.9211673  74.3415993  69.9508903  12.6771673  74.1725993  70.0708903
  10.4501673  69.4615993  59.8628903  11.1961673  69.0545993  60.0618903
  10.7131673  70.1765993  59.4378903  10.5991673  69.5075993  59.8298903
   6.9041673  71.7495993  64.9358903   7.2481673  71.9015993  65.7228903
   6.4511673  71.0115993  65.0488903   6.8881673  71.6625993  65.0688903
   8.2251673  73.0815993  67.4898903   7.5631673  73.4095993  67.9528903
   8.4121673  73.7155993  66.9208903   8.1551673  73.2235993  67.4738903
   4.8701673  68.9875993  70.9188903   5.0191673  68.1625993  70.6758903
   5.2491673  69.0425993  71.7028903   4.9481673  68.8735993  70.9988903
   6.4181673  71.0505993  61.0008903   6.9081673  71.7675993  60.9238903
   5.6281673  71.3115993  60.7378903   6.3741673  71.1945993  60.9508903
   3.0001673  72.5205993  66.7258903   3.4801673  73.2195993  66.9338903
   3.3731673  71.8735993  67.1768903   3.1261673  72.5285993  66.8228903
   5.1891673  75.6895993  58.9998903   5.1811673  76.4115993  58.5098903
   4.5501673  75.8245993  59.5768903   5.0941673  75.8165993  59.0128903
  10.5111673  67.7725993  74.0578903   9.8741673  67.3725993  73.6158903
  10.5371673  67.3415993  74.8158903  10.4211673  67.6505993  74.1038903
   3.5941673  75.6805993  61.3288903   3.6531673  76.3305993  61.9078903
   3.4051673  74.9845993  61.8198903   3.5751673  75.6735993  61.4868903
   9.7511673  76.9515993  68.3168903   9.7441673  76.1755993  68.7148903
   8.9101673  77.1855993  68.3098903   9.6261673  76.8715993  68.3748903
   8.6691673  70.9465993  74.2938903   8.1441673  71.4055993  74.8178903
   8.3081673  70.1515993  74.2878903   8.5381673  70.8965993  74.3698903
   7.1611673  74.5155993  74.3698903   7.2341673  74.6195993  75.2328903
   6.5271673  75.0735993  74.1488903   7.0781673  74.6135993  74.4648903
   9.4291673  74.8345993  72.7348903   9.7481673  75.6205993  72.9378903
   9.0591673  74.5645993  73.4778903   9.4221673  74.9105993  72.8748903
   9.2251673  73.0925993  63.9238903   8.4801673  72.7695993  64.2418903
   9.2271673  73.9185993  64.2038903   9.1151673  73.1665993  64.0118903
  12.1271673  75.3765993  75.4698903  12.0751673  75.0355993  74.6688903
  12.8641673  75.8435993  75.4478903  12.2281673  75.3955993  75.3478903
   8.1371673  69.4225993  71.3848903   8.8811673  69.8745993  71.3218903
   7.5711673  69.8925993  70.9158903   8.1641673  69.5595993  71.3068903
   3.3151673  76.7065993  68.4628903   3.7911673  77.0805993  69.0908903
   2.4921673  76.8405993  68.7218903   3.2641673  76.7815993  68.5938903
   9.4221673  67.4025993  69.0548903   9.1421673  68.2275993  69.0108903
  10.1381673  67.4555993  69.5508903   9.4871673  67.5325993  69.1218903
   1.7771673  68.1175993  71.0838903   2.4821673  68.4375993  70.6818903
   2.0181673  67.3105993  71.3108903   1.9161673  68.0455993  71.0578903
  10.8431673  73.6575993  57.9118903  11.2211673  74.3345993  57.5118903
  10.0011673  73.8815993  57.9428903  10.7741673  73.7905993  57.8568903
   6.3021673  72.2725993  72.7368903   5.6541673  72.7425993  73.0848903
   6.8671673  72.1835993  73.3958903   6.2901673  72.3285993  72.8858903
   5.9901673  73.8095993  69.0348903   6.2921673  74.2295993  69.7378903
   6.0261673  72.9695993  69.2668903   6.0401673  73.7475993  69.1728903
   8.5381673  73.2565993  61.2868903   8.7451673  73.0555993  62.1108903
   9.2941673  73.5245993  60.9448903   8.6801673  73.2665993  61.3578903
   9.5601673  69.3395993  62.7608903   8.8461673  68.8685993  62.9318903
   9.3981673  69.6805993  61.9748903   9.4311673  69.3205993  62.6698903
  10.0031673  77.2835993  61.1408903  10.4791673  76.5545993  61.0928903
   9.1821673  76.9975993  61.0648903   9.9521673  77.1335993  61.1218903
  12.1391673  74.4515993  72.8988903  11.2841673  74.3295993  73.0248903
  12.2921673  74.0565993  72.1358903  12.0351673  74.3745993  72.8048903
   6.6521673  75.1165993  71.4748903   6.3971673  74.3975993  71.8968903
   7.4731673  75.2325993  71.7448903   6.7361673  75.0275993  71.5768903
   4.5861673  76.3065993  74.6618903   4.9091673  76.9925993  74.2298903
   3.8821673  76.6295993  75.0638903   4.5291673  76.4555993  74.6568903
  10.7731673  74.3965993  60.5828903  10.8761673  74.3385993  59.7188903
  11.5141673  74.0645993  60.9008903  10.8981673  74.3395993  60.5018903
   9.8751673  74.5425993  69.9388903   9.8731673  73.6795993  70.0628903
   9.9421673  74.8665993  70.7458903   9.8851673  74.4625993  70.0758903
   5.7541673  69.3425993  73.7208903   5.8461673  70.0545993  74.2148903
   5.1171673  68.8975993  74.1178903   5.6731673  69.3815993  73.8528903
   4.7481673  69.5325993  64.5748903   4.0481673  70.0505993  64.5188903
   4.7861673  69.1525993  63.7908903   4.6501673  69.5535993  64.4508903
   8.3461673  70.0485993  67.3748903   9.2011673  70.1475993  67.5198903
   7.9771673  70.6015993  67.9398903   8.4181673  70.1455993  67.4798903
   8.6501673  75.3285993  65.8658903   9.3161673  75.8695993  66.0258903
   8.3051673  75.6395993  65.1268903   8.6971673  75.4545993  65.7808903
  11.8211673  67.8865993  70.5308903  11.7691673  67.8425993  71.4008903
  12.5081673  67.3835993  70.3408903  11.9151673  67.8065993  70.6308903
   3.9061673  69.9995993  67.5758903   3.1691673  69.5455993  67.6888903
   4.4771673  69.5975993  68.0988903   3.8811673  69.8725993  67.6698903
   6.0691673  68.1905993  66.8268903   6.7391673  68.7345993  66.9538903
   5.5661673  68.6145993  66.2538903   6.0941673  68.3335993  66.7608903
   5.4281673  73.9985993  64.3198903   5.9791673  73.3915993  64.6198903
   5.0031673  74.2615993  65.0348903   5.4471673  73.9475993  64.4688903
   7.3981673  75.8295993  60.8818903   7.4661673  74.9795993  61.0628903
   6.5751673  75.9155993  60.6038903   7.2861673  75.7165993  60.8678903
  11.2971673  71.7665993  74.7708903  11.1011673  72.4105993  75.3258903
  10.5751673  71.2765993  74.7628903  11.1621673  71.7895993  74.8518903
  11.1961673  72.7075993  67.7418903  10.3631673  72.9575993  67.6698903
  11.1401673  71.8675993  67.9708903  11.0651673  72.6205993  67.7648903
   4.8471673  67.8985993  43.2906493   4.6021673  68.3865993  42.6106493
   5.7101673  67.8255993  43.1906493   4.9381673  67.9595993  43.1756493
   4.6561673  74.8145993  47.9616493   4.1321673  75.4105993  48.3246493
   5.0531673  74.4465993  48.6456493   4.6371673  74.8485993  48.1166493
   7.3271673  75.8815993  44.6376493   7.4071673  75.8855993  43.7686493
   6.7431673  75.2495993  44.7866493   7.2521673  75.7885993  44.5316493
   4.1411673  73.8715993  54.0576493   3.2931673  73.7725993  53.8796493
   4.1701673  74.6165993  54.5116493   4.0201673  73.9675993  54.0986493
   8.6991673  66.8315993  53.1716493   8.5411673  67.6005993  52.7896493
   7.9271673  66.6115993  53.5156493   8.5611673  66.9125993  53.1666493
   6.1611673  71.4725993  37.6856493   5.7111673  72.1535993  37.9926493
   6.2751673  70.9685993  38.3886493   6.1121673  71.4985993  37.8346493
  11.5551673  71.4455993  43.9806493  11.2091673  72.1235993  44.4066493
  10.9191673  70.8475993  43.9966493  11.4101673  71.4575993  44.0456493
   3.0841673  68.1615993  54.8286493   3.2621673  67.3525993  54.5536493
   2.9411673  68.6025993  54.0896493   3.0891673  68.1075993  54.6786493
   3.6781673  73.0875993  43.6016493   3.9651673  72.8555993  42.8116493
   4.4101673  73.1665993  44.0706493   3.8281673  73.0645993  43.5546493
   4.4001673  73.4265993  38.7226493   4.6811673  74.2145993  38.9716493
   3.6241673  73.5915993  38.3596493   4.3271673  73.5675993  38.7056493
  11.2301673  69.7685993  49.3496493  11.9871673  69.8405993  48.9216493
  11.2931673  68.9955993  49.7486493  11.3511673  69.6655993  49.3446493
   6.7661673  69.4935993  39.5926493   7.3061673  68.8115993  39.6686493
   6.8281673  69.8915993  40.3666493   6.8551673  69.4515993  39.7186493
   4.0241673  71.8695993  40.9066493   3.5161673  71.2075993  40.6526493
   4.0761673  72.3735993  40.1966493   3.9571673  71.8465993  40.7646493
   4.0241673  68.8105993  40.7976493   3.5691673  68.4085993  40.1716493
   4.7971673  68.9655993  40.4226493   4.0711673  68.7745993  40.6496493
   2.6221673  71.1775993  45.3196493   2.6961673  71.7455993  44.6616493
   2.7431673  71.6695993  46.0296493   2.6501673  71.3345993  45.3276493
   6.4141673  71.3475993  51.2076493   6.3191673  71.6665993  52.0136493
   5.8211673  70.7085993  51.1696493   6.3121673  71.2995993  51.3216493
   7.6701673  67.2915993  44.0436493   7.7191673  66.9735993  44.8546493
   7.9931673  66.6475993  43.5506493   7.7251673  67.1495993  44.0906493
  10.1341673  71.5275993  52.3516493  10.9061673  71.3025993  52.6886493
   9.6591673  71.7445993  53.0516493  10.1781673  71.5265993  52.5046493
   8.2611673  75.0425993  39.1246493   8.0411673  75.7735993  38.7026493
   7.8131673  75.0935993  39.8716493   8.1621673  75.1575993  39.1726493
  12.4481673  69.9035993  38.5776493  11.7861673  69.3355993  38.6006493
  12.2551673  70.4155993  37.8976493  12.3221673  69.8955993  38.4806493
  12.7711673  74.2815993  51.1336493  12.9861673  73.4815993  50.8576493
  11.9211673  74.3415993  50.9446493  12.6771673  74.1725993  51.0646493
  10.4501673  69.4615993  40.8566493  11.1961673  69.0545993  41.0556493
  10.7131673  70.1765993  40.4316493  10.5991673  69.5075993  40.8236493
   6.9041673  71.7495993  45.9296493   7.2481673  71.9015993  46.7166493
   6.4511673  71.0115993  46.0426493   6.8881673  71.6625993  46.0626493
   8.2251673  73.0815993  48.4836493   7.5631673  73.4095993  48.9466493
   8.4121673  73.7155993  47.9146493   8.1551673  73.2235993  48.4676493
   4.8701673  68.9875993  51.9126493   5.0191673  68.1625993  51.6696493
   5.2491673  69.0425993  52.6966493   4.9481673  68.8735993  51.9926493
   6.4181673  71.0505993  41.9946493   6.9081673  71.7675993  41.9176493
   5.6281673  71.3115993  41.7316493   6.3741673  71.1945993  41.9446493
   3.0001673  72.5205993  47.7196493   3.4801673  73.2195993  47.9276493
   3.3731673  71.8735993  48.1706493   3.1261673  72.5285993  47.8166493
   5.1891673  75.6895993  39.9936493   5.1811673  76.4115993  39.5036493
   4.5501673  75.8245993  40.5706493   5.0941673  75.8165993  40.0066493
  10.5111673  67.7725993  55.0516493   9.8741673  67.3725993  54.6096493
  10.5371673  67.3415993  55.8096493  10.4211673  67.6505993  55.0976493
   3.5941673  75.6805993  42.3226493   3.6531673  76.3305993  42.9016493
   3.4051673  74.9845993  42.8136493   3.5751673  75.6735993  42.4806493
   9.7511673  76.9515993  49.3106493   9.7441673  76.1755993  49.7086493
   8.9101673  77.1855993  49.3036493   9.6261673  76.8715993  49.3686493
   8.6691673  70.9465993  55.2876493   8.1441673  71.4055993  55.8116493
   8.3081673  70.1515993  55.2816493   8.5381673  70.8965993  55.3636493
   7.1611673  74.5155993  55.3636493   7.2341673  74.6195993  56.2266493
   6.5271673  75.0735993  55.1426493   7.0781673  74.6135993  55.4586493
   9.4291673  74.8345993  53.7286493   9.7481673  75.6205993  53.9316493
   9.0591673  74.5645993  54.4716493   9.4221673  74.9105993  53.8686493
   9.2251673  73.0925993  44.9176493   8.4801673  72.7695993  45.2356493
   9.2271673  73.9185993  45.1976493   9.1151673  73.1665993  45.0056493
  12.1271673  75.3765993  56.4636493  12.0751673  75.0355993  55.6626493
  12.8641673  75.8435993  56.4416493  12.2281673  75.3955993  56.3416493
   8.1371673  69.4225993  52.3786493   8.8811673  69.8745993  52.3156493
   7.5711673  69.8925993  51.9096493   8.1641673  69.5595993  52.3006493
   3.3151673  76.7065993  49.4566493   3.7911673  77.0805993  50.0846493
   2.4921673  76.8405993  49.7156493   3.2641673  76.7815993  49.5876493
   9.4221673  67.4025993  50.0486493   9.1421673  68.2275993  50.0046493
  10.1381673  67.4555993  50.5446493   9.4871673  67.5325993  50.1156493
   1.7771673  68.1175993  52.0776493   2.4821673  68.4375993  51.6756493
   2.0181673  67.3105993  52.3046493   1.9161673  68.0455993  52.0516493
  10.8431673  73.6575993  38.9056493  11.2211673  74.3345993  38.5056493
  10.0011673  73.8815993  38.9366493  10.7741673  73.7905993  38.8506493
   6.3021673  72.2725993  53.7306493   5.6541673  72.7425993  54.0786493
   6.8671673  72.1835993  54.3896493   6.2901673  72.3285993  53.8796493
   5.9901673  73.8095993  50.0286493   6.2921673  74.2295993  50.7316493
   6.0261673  72.9695993  50.2606493   6.0401673  73.7475993  50.1666493
   8.5381673  73.2565993  42.2806493   8.7451673  73.0555993  43.1046493
   9.2941673  73.5245993  41.9386493   8.6801673  73.2665993  42.3516493
   9.5601673  69.3395993  43.7546493   8.8461673  68.8685993  43.9256493
   9.3981673  69.6805993  42.9686493   9.4311673  69.3205993  43.6636493
  10.0031673  77.2835993  42.1346493  10.4791673  76.5545993  42.0866493
   9.1821673  76.9975993  42.0586493   9.9521673  77.1335993  42.1156493
  12.1391673  74.4515993  53.8926493  11.2841673  74.3295993  54.0186493
  12.2921673  74.0565993  53.1296493  12.0351673  74.3745993  53.7986493
   6.6521673  75.1165993  52.4686493   6.3971673  74.3975993  52.8906493
   7.4731673  75.2325993  52.7386493   6.7361673  75.0275993  52.5706493
   4.5861673  76.3065993  55.6556493   4.9091673  76.9925993  55.2236493
   3.8821673  76.6295993  56.0576493   4.5291673  76.4555993  55.6506493
  10.7731673  74.3965993  41.5766493  10.8761673  74.3385993  40.7126493
  11.5141673  74.0645993  41.8946493  10.8981673  74.3395993  41.4956493
   9.8751673  74.5425993  50.9326493   9.8731673  73.6795993  51.0566493
   9.9421673  74.8665993  51.7396493   9.8851673  74.4625993  51.0696493
   5.7541673  69.3425993  54.7146493   5.8461673  70.0545993  55.2086493
   5.1171673  68.8975993  55.1116493   5.6731673  69.3815993  54.8466493
   4.7481673  69.5325993  45.5686493   4.0481673  70.0505993  45.5126493
   4.7861673  69.1525993  44.7846493   4.6501673  69.5535993  45.4446493
   8.3461673  70.0485993  48.3686493   9.2011673  70.1475993  48.5136493
   7.9771673  70.6015993  48.9336493   8.4181673  70.1455993  48.4736493
   8.6501673  75.3285993  46.8596493   9.3161673  75.8695993  47.0196493
   8.3051673  75.6395993  46.1206493   8.6971673  75.4545993  46.7746493
  11.8211673  67.8865993  51.5246493  11.7691673  67.8425993  52.3946493
  12.5081673  67.3835993  51.3346493  11.9151673  67.8065993  51.6246493
   3.9061673  69.9995993  48.5696493   3.1691673  69.5455993  48.6826493
   4.4771673  69.5975993  49.0926493   3.8811673  69.8725993  48.6636493
   6.0691673  68.1905993  47.8206493   6.7391673  68.7345993  47.9476493
   5.5661673  68.6145993  47.2476493   6.0941673  68.3335993  47.7546493
   5.4281673  73.9985993  45.3136493   5.9791673  73.3915993  45.6136493
   5.0031673  74.2615993  46.0286493   5.4471673  73.9475993  45.4626493
   7.3981673  75.8295993  41.8756493   7.4661673  74.9795993  42.0566493
   6.5751673  75.9155993  41.5976493   7.2861673  75.7165993  41.8616493
  11.2971673  71.7665993  55.7646493  11.1011673  72.4105993  56.3196493
  10.5751673  71.2765993  55.7566493  11.1621673  71.7895993  55.8456493
  11.1961673  72.7075993  48.7356493  10.3631673  72.9575993  48.6636493
  11.1401673  71.8675993  48.9646493  11.0651673  72.6205993  48.7586493
   4.8471673  67.8985993  24.2844083   4.6021673  68.3865993  23.6044083
   5.7101673  67.8255993  24.1844083   4.9381673  67.9595993  24.1694083
   4.6561673  74.8145993  28.9554083   4.1321673  75.4105993  29.3184083
   5.0531673  74.4465993  29.6394083   4.6371673  74.8485993  29.1104083
   7.3271673  75.8815993  25.6314083   7.4071673  75.8855993  24.7624083
   6.7431673  75.2495993  25.7804083   7.2521673  75.7885993  25.5254083
   4.1411673  73.8715993  35.0514083   3.2931673  73.7725993  34.8734083
   4.1701673  74.6165993  35.5054083   4.0201673  73.9675993  35.0924083
   8.6991673  66.8315993  34.1654083   8.5411673  67.6005993  33.7834083
   7.9271673  66.6115993  34.5094083   8.5611673  66.9125993  34.1604083
   6.1611673  71.4725993  18.6794083   5.7111673  72.1535993  18.9864083
   6.2751673  70.9685993  19.3824083   6.1121673  71.4985993  18.8284083
  11.5551673  71.4455993  24.9744083  11.2091673  72.1235993  25.4004083
  10.9191673  70.8475993  24.9904083  11.4101673  71.4575993  25.0394083
   3.0841673  68.1615993  35.8224083   3.2621673  67.3525993  35.5474083
   2.9411673  68.6025993  35.0834083   3.0891673  68.1075993  35.6724083
   3.6781673  73.0875993  24.5954083   3.9651673  72.8555993  23.8054083
   4.4101673  73.1665993  25.0644083   3.8281673  73.0645993  24.5484083
   4.4001673  73.4265993  19.7164083   4.6811673  74.2145993  19.9654083
   3.6241673  73.5915993  19.3534083   4.3271673  73.5675993  19.6994083
  11.2301673  69.7685993  30.3434083  11.9871673  69.8405993  29.9154083
  11.2931673  68.9955993  30.7424083  11.3511673  69.6655993  30.3384083
   6.7661673  69.4935993  20.5864083   7.3061673  68.8115993  20.6624083
   6.8281673  69.8915993  21.3604083   6.8551673  69.4515993  20.7124083
   4.0241673  71.8695993  21.9004083   3.5161673  71.2075993  21.6464083
   4.0761673  72.3735993  21.1904083   3.9571673  71.8465993  21.7584083
   4.0241673  68.8105993  21.7914083   3.5691673  68.4085993  21.1654083
   4.7971673  68.9655993  21.4164083   4.0711673  68.7745993  21.6434083
   2.6221673  71.1775993  26.3134083   2.6961673  71.7455993  25.6554083
   2.7431673  71.6695993  27.0234083   2.6501673  71.3345993  26.3214083
   6.4141673  71.3475993  32.2014083   6.3191673  71.6665993  33.0074083
   5.8211673  70.7085993  32.1634083   6.3121673  71.2995993  32.3154083
   7.6701673  67.2915993  25.0374083   7.7191673  66.9735993  25.8484083
   7.9931673  66.6475993  24.5444083   7.7251673  67.1495993  25.0844083
  10.1341673  71.5275993  33.3454083  10.9061673  71.3025993  33.6824083
   9.6591673  71.7445993  34.0454083  10.1781673  71.5265993  33.4984083
   8.2611673  75.0425993  20.1184083   8.0411673  75.7735993  19.6964083
   7.8131673  75.0935993  20.8654083   8.1621673  75.1575993  20.1664083
  12.4481673  69.9035993  19.5714083  11.7861673  69.3355993  19.5944083
  12.2551673  70.4155993  18.8914083  12.3221673  69.8955993  19.4744083
  12.7711673  74.2815993  32.1274083  12.9861673  73.4815993  31.8514083
  11.9211673  74.3415993  31.9384083  12.6771673  74.1725993  32.0584083
  10.4501673  69.4615993  21.8504083  11.1961673  69.0545993  22.0494083
  10.7131673  70.1765993  21.4254083  10.5991673  69.5075993  21.8174083
   6.9041673  71.7495993  26.9234083   7.2481673  71.9015993  27.7104083
   6.4511673  71.0115993  27.0364083   6.8881673  71.6625993  27.0564083
   8.2251673  73.0815993  29.4774083   7.5631673  73.4095993  29.9404083
   8.4121673  73.7155993  28.9084083   8.1551673  73.2235993  29.4614083
   4.8701673  68.9875993  32.9064083   5.0191673  68.1625993  32.6634083
   5.2491673  69.0425993  33.6904083   4.9481673  68.8735993  32.9864083
   6.4181673  71.0505993  22.9884083   6.9081673  71.7675993  22.9114083
   5.6281673  71.3115993  22.7254083   6.3741673  71.1945993  22.9384083
   3.0001673  72.5205993  28.7134083   3.4801673  73.2195993  28.9214083
   3.3731673  71.8735993  29.1644083   3.1261673  72.5285993  28.8104083
   5.1891673  75.6895993  20.9874083   5.1811673  76.4115993  20.4974083
   4.5501673  75.8245993  21.5644083   5.0941673  75.8165993  21.0004083
  10.5111673  67.7725993  36.0454083   9.8741673  67.3725993  35.6034083
  10.5371673  67.3415993  36.8034083  10.4211673  67.6505993  36.0914083
   3.5941673  75.6805993  23.3164083   3.6531673  76.3305993  23.8954083
   3.4051673  74.9845993  23.8074083   3.5751673  75.6735993  23.4744083
   9.7511673  76.9515993  30.3044083   9.7441673  76.1755993  30.7024083
   8.9101673  77.1855993  30.2974083   9.6261673  76.8715993  30.3624083
   8.6691673  70.9465993  36.2814083   8.1441673  71.4055993  36.8054083
   8.3081673  70.1515993  36.2754083   8.5381673  70.8965993  36.3574083
   7.1611673  74.5155993  36.3574083   7.2341673  74.6195993  37.2204083
   6.5271673  75.0735993  36.1364083   7.0781673  74.6135993  36.4524083
   9.4291673  74.8345993  34.7224083   9.7481673  75.6205993  34.9254083
   9.0591673  74.5645993  35.4654083   9.4221673  74.9105993  34.8624083
   9.2251673  73.0925993  25.9114083   8.4801673  72.7695993  26.2294083
   9.2271673  73.9185993  26.1914083   9.1151673  73.1665993  25.9994083
  12.1271673  75.3765993  37.4574083  12.0751673  75.0355993  36.6564083
  12.8641673  75.8435993  37.4354083  12.2281673  75.3955993  37.3354083
   8.1371673  69.4225993  33.3724083   8.8811673  69.8745993  33.3094083
   7.5711673  69.8925993  32.9034083   8.1641673  69.5595993  33.2944083
   3.3151673  76.7065993  30.4504083   3.7911673  77.0805993  31.0784083
   2.4921673  76.8405993  30.7094083   3.2641673  76.7815993  30.5814083
   9.4221673  67.4025993  31.0424083   9.1421673  68.2275993  30.9984083
  10.1381673  67.4555993  31.5384083   9.4871673  67.5325993  31.1094083
   1.7771673  68.1175993  33.0714083   2.4821673  68.4375993  32.6694083
   2.0181673  67.3105993  33.2984083   1.9161673  68.0455993  33.0454083
  10.8431673  73.6575993  19.8994083  11.2211673  74.3345993  19.4994083
  10.0011673  73.8815993  19.9304083  10.7741673  73.7905993  19.8444083
   6.3021673  72.2725993  34.7244083   5.6541673  72.7425993  35.0724083
   6.8671673  72.1835993  35.3834083   6.2901673  72.3285993  34.8734083
   5.9901673  73.8095993  31.0224083   6.2921673  74.2295993  31.7254083
   6.0261673  72.9695993  31.2544083   6.0401673  73.7475993  31.1604083
   8.5381673  73.2565993  23.2744083   8.7451673  73.0555993  24.0984083
   9.2941673  73.5245993  22.9324083   8.6801673  73.2665993  23.3454083
   9.5601673  69.3395993  24.7484083   8.8461673  68.8685993  24.9194083
   9.3981673  69.6805993  23.9624083   9.4311673  69.3205993  24.6574083
  10.0031673  77.2835993  23.1284083  10.4791673  76.5545993  23.0804083
   9.1821673  76.9975993  23.0524083   9.9521673  77.1335993  23.1094083
  12.1391673  74.4515993  34.8864083  11.2841673  74.3295993  35.0124083
  12.2921673  74.0565993  34.1234083  12.0351673  74.3745993  34.7924083
   6.6521673  75.1165993  33.4624083   6.3971673  74.3975993  33.8844083
   7.4731673  75.2325993  33.7324083   6.7361673  75.0275993  33.5644083
   4.5861673  76.3065993  36.6494083   4.9091673  76.9925993  36.2174083
   3.8821673  76.6295993  37.0514083   4.5291673  76.4555993  36.6444083
  10.7731673  74.3965993  22.5704083  10.8761673  74.3385993  21.7064083
  11.5141673  74.0645993  22.8884083  10.8981673  74.3395993  22.4894083
   9.8751673  74.5425993  31.9264083   9.8731673  73.6795993  32.0504083
   9.9421673  74.8665993  32.7334083   9.8851673  74.4625993  32.0634083
   5.7541673  69.3425993  35.7084083   5.8461673  70.0545993  36.2024083
   5.1171673  68.8975993  36.1054083   5.6731673  69.3815993  35.8404083
   4.7481673  69.5325993  26.5624083   4.0481673  70.0505993  26.5064083
   4.7861673  69.1525993  25.7784083   4.6501673  69.5535993  26.4384083
   8.3461673  70.0485993  29.3624083   9.2011673  70.1475993  29.5074083
   7.9771673  70.6015993  29.9274083   8.4181673  70.1455993  29.4674083
   8.6501673  75.3285993  27.8534083   9.3161673  75.8695993  28.0134083
   8.3051673  75.6395993  27.1144083   8.6971673  75.4545993  27.7684083
  11.8211673  67.8865993  32.5184083  11.7691673  67.8425993  33.3884083
  12.5081673  67.3835993  32.3284083  11.9151673  67.8065993  32.6184083
   3.9061673  69.9995993  29.5634083   3.1691673  69.5455993  29.6764083
   4.4771673  69.5975993  30.0864083   3.8811673  69.8725993  29.6574083
   6.0691673  68.1905993  28.8144083   6.7391673  68.7345993  28.9414083
   5.5661673  68.6145993  28.2414083   6.0941673  68.3335993  28.7484083
   5.4281673  73.9985993  26.3074083   5.9791673  73.3915993  26.6074083
   5.0031673  74.2615993  27.0224083   5.4471673  73.9475993  26.4564083
   7.3981673  75.8295993  22.8694083   7.4661673  74.9795993  23.0504083
   6.5751673  75.9155993  22.5914083   7.2861673  75.7165993  22.8554083
  11.2971673  71.7665993  36.7584083  11.1011673  72.4105993  37.3134083
  10.5751673  71.2765993  36.7504083  11.1621673  71.7895993  36.8394083
  11.1961673  72.7075993  29.7294083  10.3631673  72.9575993  29.6574083
  11.1401673  71.8675993  29.9584083  11.0651673  72.6205993  29.7524083
   4.8471673  67.8985993   5.2781673   4.6021673  68.3865993   4.5981673
   5.7101673  67.8255993   5.1781673   4.9381673  67.9595993   5.1631673
   4.6561673  74.8145993   9.9491673   4.1321673  75.4105993  10.3121673
   5.0531673  74.4465993  10.6331673   4.6371673  74.8485993  10.1041673
   7.3271673  75.8815993   6.6251673   7.4071673  75.8855993   5.7561673
   6.7431673  75.2495993   6.7741673   7.2521673  75.7885993   6.5191673
   4.1411673  73.8715993  16.0451673   3.2931673  73.7725993  15.8671673
   4.1701673  74.6165993  16.4991673   4.0201673  73.9675993  16.0861673
   8.6991673  66.8315993  15.1591673   8.5411673  67.6005993  14.7771673
   7.9271673  66.6115993  15.5031673   8.5611673  66.9125993  15.1541673
  11.5551673  71.4455993   5.9681673  11.2091673  72.1235993   6.3941673
  10.9191673  70.8475993   5.9841673  11.4101673  71.4575993   6.0331673
   3.0841673  68.1615993  16.8161673   3.2621673  67.3525993  16.5411673
   2.9411673  68.6025993  16.0771673   3.0891673  68.1075993  16.6661673
   3.6781673  73.0875993   5.5891673   3.9651673  72.8555993   4.7991673
   4.4101673  73.1665993   6.0581673   3.8281673  73.0645993   5.5421673
  11.2301673  69.7685993  11.3371673  11.9871673  69.8405993  10.9091673
  11.2931673  68.9955993  11.7361673  11.3511673  69.6655993  11.3321673
   4.0241673  71.8695993   2.8941673   3.5161673  71.2075993   2.6401673
   4.0761673  72.3735993   2.1841673   3.9571673  71.8465993   2.7521673
   4.0241673  68.8105993   2.7851673   3.5691673  68.4085993   2.1591673
   4.7971673  68.9655993   2.4101673   4.0711673  68.7745993   2.6371673
   2.6221673  71.1775993   7.3071673   2.6961673  71.7455993   6.6491673
   2.7431673  71.6695993   8.0171673   2.6501673  71.3345993   7.3151673
   6.4141673  71.3475993  13.1951673   6.3191673  71.6665993  14.0011673
   5.8211673  70.7085993  13.1571673   6.3121673  71.2995993  13.3091673
   7.6701673  67.2915993   6.0311673   7.7191673  66.9735993   6.8421673
   7.9931673  66.6475993   5.5381673   7.7251673  67.1495993   6.0781673
  10.1341673  71.5275993  14.3391673  10.9061673  71.3025993  14.6761673
   9.6591673  71.7445993  15.0391673  10.1781673  71.5265993  14.4921673
  12.7711673  74.2815993  13.1211673  12.9861673  73.4815993  12.8451673
  11.9211673  74.3415993  12.9321673  12.6771673  74.1725993  13.0521673
  10.4501673  69.4615993   2.8441673  11.1961673  69.0545993   3.0431673
  10.7131673  70.1765993   2.4191673  10.5991673  69.5075993   2.8111673
   6.9041673  71.7495993   7.9171673   7.2481673  71.9015993   8.7041673
   6.4511673  71.0115993   8.0301673   6.8881673  71.6625993   8.0501673
   8.2251673  73.0815993  10.4711673   7.5631673  73.4095993  10.9341673
   8.4121673  73.7155993   9.9021673   8.1551673  73.2235993  10.4551673
   4.8701673  68.9875993  13.9001673   5.0191673  68.1625993  13.6571673
   5.2491673  69.0425993  14.6841673   4.9481673  68.8735993  13.9801673
   6.4181673  71.0505993   3.9821673   6.9081673  71.7675993   3.9051673
   5.6281673  71.3115993   3.7191673   6.3741673  71.1945993   3.9321673
   3.0001673  72.5205993   9.7071673   3.4801673  73.2195993   9.9151673
   3.3731673  71.8735993  10.1581673   3.1261673  72.5285993   9.8041673
  10.5111673  67.7725993  17.0391673   9.8741673  67.3725993  16.5971673
  10.5371673  67.3415993  17.7971673  10.4211673  67.6505993  17.0851673
   3.5941673  75.6805993   4.3101673   3.6531673  76.3305993   4.8891673
   3.4051673  74.9845993   4.8011673   3.5751673  75.6735993   4.4681673
   9.7511673  76.9515993  11.2981673   9.7441673  76.1755993  11.6961673
   8.9101673  77.1855993  11.2911673   9.6261673  76.8715993  11.3561673
   8.6691673  70.9465993  17.2751673   8.1441673  71.4055993  17.7991673
   8.3081673  70.1515993  17.2691673   8.5381673  70.8965993  17.3511673
   7.1611673  74.5155993  17.3511673   7.2341673  74.6195993  18.2141673
   6.5271673  75.0735993  17.1301673   7.0781673  74.6135993  17.4461673
   9.4291673  74.8345993  15.7161673   9.7481673  75.6205993  15.9191673
   9.0591673  74.5645993  16.4591673   9.4221673  74.9105993  15.8561673
   9.2251673  73.0925993   6.9051673   8.4801673  72.7695993   7.2231673
   9.2271673  73.9185993   7.1851673   9.1151673  73.1665993   6.9931673
  12.1271673  75.3765993  18.4511673  12.0751673  75.0355993  17.6501673
  12.8641673  75.8435993  18.4291673  12.2281673  75.3955993  18.3291673
   8.1371673  69.4225993  14.3661673   8.8811673  69.8745993  14.3031673
   7.5711673  69.8925993  13.8971673   8.1641673  69.5595993  14.2881673
   3.3151673  76.7065993  11.4441673   3.7911673  77.0805993  12.0721673
   2.4921673  76.8405993  11.7031673   3.2641673  76.7815993  11.5751673
   9.4221673  67.4025993  12.0361673   9.1421673  68.2275993  11.9921673
  10.1381673  67.4555993  12.5321673   9.4871673  67.5325993  12.1031673
   1.7771673  68.1175993  14.0651673   2.4821673  68.4375993  13.6631673
   2.0181673  67.3105993  14.2921673   1.9161673  68.0455993  14.0391673
   6.3021673  72.2725993  15.7181673   5.6541673  72.7425993  16.0661673
   6.8671673  72.1835993  16.3771673   6.2901673  72.3285993  15.8671673
   5.9901673  73.8095993  12.0161673   6.2921673  74.2295993  12.7191673
   6.0261673  72.9695993  12.2481673   6.0401673  73.7475993  12.1541673
   8.5381673  73.2565993   4.2681673   8.7451673  73.0555993   5.0921673
   9.2941673  73.5245993   3.9261673   8.6801673  73.2665993   4.3391673
   9.5601673  69.3395993   5.7421673   8.8461673  68.8685993   5.9131673
   9.3981673  69.6805993   4.9561673   9.4311673  69.3205993   5.6511673
  10.0031673  77.2835993   4.1221673  10.4791673  76.5545993   4.0741673
   9.1821673  76.9975993   4.0461673   9.9521673  77.1335993   4.1031673
  12.1391673  74.4515993  15.8801673  11.2841673  74.3295993  16.0061673
  12.2921673  74.0565993  15.1171673  12.0351673  74.3745993  15.7861673
   6.6521673  75.1165993  14.4561673   6.3971673  74.3975993  14.8781673
   7.4731673  75.2325993  14.7261673   6.7361673  75.0275993  14.5581673
   4.5861673  76.3065993  17.6431673   4.9091673  76.9925993  17.2111673
   3.8821673  76.6295993  18.0451673   4.5291673  76.4555993  17.6381673
  10.7731673  74.3965993   3.5641673  10.8761673  74.3385993   2.7001673
  11.5141673  74.0645993   3.8821673  10.8981673  74.3395993   3.4831673
   9.8751673  74.5425993  12.9201673   9.8731673  73.6795993  13.0441673
   9.9421673  74.8665993  13.7271673   9.8851673  74.4625993  13.0571673
   5.7541673  69.3425993  16.7021673   5.8461673  70.0545993  17.1961673
   5.1171673  68.8975993  17.0991673   5.6731673  69.3815993  16.8341673
   4.7481673  69.5325993   7.5561673   4.0481673  70.0505993   7.5001673
   4.7861673  69.1525993   6.7721673   4.6501673  69.5535993   7.4321673
   8.3461673  70.0485993  10.3561673   9.2011673  70.1475993  10.5011673
   7.9771673  70.6015993  10.9211673   8.4181673  70.1455993  10.4611673
   8.6501673  75.3285993   8.8471673   9.3161673  75.8695993   9.0071673
   8.3051673  75.6395993   8.1081673   8.6971673  75.4545993   8.7621673
  11.8211673  67.8865993  13.5121673  11.7691673  67.8425993  14.3821673
  12.5081673  67.3835993  13.3221673  11.9151673  67.8065993  13.6121673
   3.9061673  69.9995993  10.5571673   3.1691673  69.5455993  10.6701673
   4.4771673  69.5975993  11.0801673   3.8811673  69.8725993  10.6511673
   6.0691673  68.1905993   9.8081673   6.7391673  68.7345993   9.9351673
   5.5661673  68.6145993   9.2351673   6.0941673  68.3335993   9.7421673
   5.4281673  73.9985993   7.3011673   5.9791673  73.3915993   7.6011673
   5.0031673  74.2615993   8.0161673   5.4471673  73.9475993   7.4501673
   7.3981673  75.8295993   3.8631673   7.4661673  74.9795993   4.0441673
   6.5751673  75.9155993   3.5851673   7.2861673  75.7165993   3.8491673
  11.2971673  71.7665993  17.7521673  11.1011673  72.4105993  18.3071673
  10.5751673  71.2765993  17.7441673  11.1621673  71.7895993  17.8331673
  11.1961673  72.7075993  10.7231673  10.3631673  72.9575993  10.6511673
  11.1401673  71.8675993  10.9521673  11.0651673  72.6205993  10.7461673
   4.8471673  49.4204913  81.3031313   4.6021673  49.9084913  80.6231313
   5.7101673  49.3474913  81.2031313   4.9381673  49.4814913  81.1881313
   4.6561673  56.3364913  85.9741313   4.1321673  56.9324913  86.3371313
   5.0531673  55.9684913  86.6581313   4.6371673  56.3704913  86.1291313
  10.8001673  63.7774913  78.9451313  11.5011673  63.2584913  78.9411313
  10.2131673  63.3324913  78.4761313  10.8171673  63.6344913  78.8751313
   7.3271673  57.4034913  82.6501313   7.4071673  57.4074913  81.7811313
   6.7431673  56.7714913  82.7991313   7.2521673  57.3104913  82.5441313
   2.1161673  61.8134913  84.5201313   2.4641673  61.0144913  84.5501313
   2.7811673  62.3174913  84.2651313   2.2661673  61.7694913  84.4871313
   2.1731673  61.2624913  80.7311313   2.5041673  60.6184913  81.2171313
   2.4131673  61.0514913  79.9201313   2.2571673  61.1364913  80.6831313
   4.1411673  55.3934913  92.0701313   3.2931673  55.2944913  91.8921313
   4.1701673  56.1384913  92.5241313   4.0201673  55.4894913  92.1111313
   8.6991673  48.3534913  91.1841313   8.5411673  49.1224913  90.8021313
   7.9271673  48.1334913  91.5281313   8.5611673  48.4344913  91.1791313
   6.1611673  52.9944913  75.6981313   5.7111673  53.6754913  76.0051313
   6.2751673  52.4904913  76.4011313   6.1121673  53.0204913  75.8471313
   6.2601673  65.3354913  77.8021313   6.9871673  65.8074913  77.9041313
   6.4891673  64.5414913  78.0821313   6.4021673  65.2884913  77.8591313
   4.4281673  65.7274913  79.7921313   4.6421673  66.2544913  80.4541313
   5.1951673  65.5534913  79.4131313   4.5731673  65.7794913  79.8341313
  11.5551673  52.9674913  81.9931313  11.2091673  53.6454913  82.4191313
  10.9191673  52.3694913  82.0091313  11.4101673  52.9794913  82.0581313
   6.8671673  65.7374913  88.0971313   7.6111673  66.1934913  88.0871313
   6.7461673  65.5234913  87.2601313   6.9591673  65.7734913  87.9721313
   3.6781673  54.6094913  81.6141313   3.9651673  54.3774913  80.8241313
   4.4101673  54.6884913  82.0831313   3.8281673  54.5864913  81.5671313
   4.4001673  54.9484913  76.7351313   4.6811673  55.7364913  76.9841313
   3.6241673  55.1134913  76.3721313   4.3271673  55.0894913  76.7181313
   8.4411673  66.9224913  78.2021313   9.1061673  66.7744913  77.6571313
   8.8011673  66.8394913  78.9921313   8.5931673  66.8884913  78.2381313
  11.2301673  51.2904913  87.3621313  11.9871673  51.3624913  86.9341313
  11.2931673  50.5174913  87.7611313  11.3511673  51.1874913  87.3571313
   6.1211673  62.9224913  91.8011313   6.0871673  63.3044913  92.5851313
   6.9751673  62.8804913  91.6301313   6.2421673  62.9724913  91.8921313
   3.2591673  63.1194913  76.5511313   3.0781673  63.6644913  77.2081313
   4.0251673  63.4094913  76.2501313   3.3451673  63.2434913  76.6041313
   6.7661673  51.0154913  77.6051313   7.3061673  50.3334913  77.6811313
   6.8281673  51.4134913  78.3791313   6.8551673  50.9734913  77.7311313
   4.0241673  53.3914913  78.9191313   3.5161673  52.7294913  78.6651313
   4.0761673  53.8954913  78.2091313   3.9571673  53.3684913  78.7771313
   4.5731673  66.0864913  89.2991313   5.3411673  66.0064913  88.8931313
   3.9901673  65.9654913  88.6611313   4.6001673  66.0564913  89.1451313
   4.0241673  50.3324913  78.8101313   3.5691673  49.9304913  78.1841313
   4.7971673  50.4874913  78.4351313   4.0711673  50.2964913  78.6621313
  10.8501673  66.6894913  82.2001313  10.3951673  67.4064913  82.4011313
  10.2361673  66.1184913  81.9581313  10.6921673  66.7114913  82.1941313
   2.6221673  52.6994913  83.3321313   2.6961673  53.2674913  82.6741313
   2.7431673  53.1914913  84.0421313   2.6501673  52.8564913  83.3401313
   7.8471673  62.5344913  81.7441313   8.5481673  62.0524913  81.9331313
   7.1871673  61.9654913  81.7891313   7.8531673  62.3794913  81.7781313
   6.4141673  52.8694913  89.2201313   6.3191673  53.1884913  90.0261313
   5.8211673  52.2304913  89.1821313   6.3121673  52.8214913  89.3341313
   7.1131673  59.5884913  87.4251313   6.5991673  59.1764913  87.9961313
   6.9871673  60.4324913  87.6061313   7.0191673  59.6524913  87.5361313
   7.6701673  48.8134913  82.0561313   7.7191673  48.4954913  82.8671313
   7.9931673  48.1694913  81.5631313   7.7251673  48.6714913  82.1031313
  10.1341673  53.0494913  90.3641313  10.9061673  52.8244913  90.7011313
   9.6591673  53.2664913  91.0641313  10.1781673  53.0484913  90.5171313
  10.3661673  60.0274913  77.5521313  10.4851673  59.7404913  78.3671313
  11.1731673  60.0484913  77.2221313  10.5021673  59.9884913  77.6241313
  12.6001673  64.5364913  91.8061313  11.9181673  64.8464913  91.3591313
  12.2311673  64.0784913  92.4511313  12.4441673  64.5144913  91.8351313
   8.2611673  56.5644913  77.1371313   8.0411673  57.2954913  76.7151313
   7.8131673  56.6154913  77.8841313   8.1621673  56.6794913  77.1851313
  12.4481673  51.4254913  76.5901313  11.7861673  50.8574913  76.6131313
  12.2551673  51.9374913  75.9101313  12.3221673  51.4174913  76.4931313
  12.7711673  55.8034913  89.1461313  12.9861673  55.0034913  88.8701313
  11.9211673  55.8634913  88.9571313  12.6771673  55.6944913  89.0771313
  10.4501673  50.9834913  78.8691313  11.1961673  50.5764913  79.0681313
  10.7131673  51.6984913  78.4441313  10.5991673  51.0294913  78.8361313
   4.3931673  63.4694913  83.4451313   3.8701673  64.1034913  83.1521313
   4.7031673  63.1054913  82.7161313   4.3611673  63.5094913  83.2941313
   6.9041673  53.2714913  83.9421313   7.2481673  53.4234913  84.7291313
   6.4511673  52.5334913  84.0551313   6.8881673  53.1844913  84.0751313
  10.4341673  64.9184913  89.8961313   9.7631673  65.4324913  90.1141313
  10.4971673  65.0184913  89.0321313  10.3441673  65.0094913  89.8011313
   8.2251673  54.6034913  86.4961313   7.5631673  54.9314913  86.9591313
   8.4121673  55.2374913  85.9271313   8.1551673  54.7454913  86.4801313
   2.4301673  65.6674913  87.4921313   2.1531673  65.0264913  86.9691313
   2.2221673  66.3934913  87.0541313   2.3591673  65.6804913  87.3501313
   4.8701673  50.5094913  89.9251313   5.0191673  49.6844913  89.6821313
   5.2491673  50.5644913  90.7091313   4.9481673  50.3954913  90.0051313
   6.4181673  52.5724913  80.0071313   6.9081673  53.2894913  79.9301313
   5.6281673  52.8334913  79.7441313   6.3741673  52.7164913  79.9571313
   7.7321673  60.4504913  91.9171313   8.2161673  61.1684913  92.0151313
   8.1261673  60.0234913  91.2661313   7.8621673  60.4934913  91.8351313
   3.0001673  54.0424913  85.7321313   3.4801673  54.7414913  85.9401313
   3.3731673  53.3954913  86.1831313   3.1261673  54.0504913  85.8291313
   5.1891673  57.2114913  78.0061313   5.1811673  57.9334913  77.5161313
   4.5501673  57.3464913  78.5831313   5.0941673  57.3384913  78.0191313
  10.1611673  61.0814913  81.9871313  10.5171673  60.7314913  82.7021313
  10.1531673  60.4204913  81.4171313  10.2131673  60.9314913  82.0081313
   6.2061673  64.1474913  85.8311313   5.6031673  63.8514913  85.2741313
   6.7511673  64.5994913  85.3221313   6.1971673  64.1704913  85.6731313
   6.2191673  60.9984913  85.2311313   5.4221673  61.2224913  85.5051313
   6.4771673  60.4044913  85.8161313   6.1391673  60.9434913  85.3581313
   2.4031673  65.3264913  78.0811313   3.0251673  65.4894913  78.6711313
   2.4391673  66.0174913  77.5491313   2.5001673  65.4524913  78.0901313
   9.4791673  58.9964913  90.0771313   9.5341673  59.1214913  89.2151313
  10.2321673  59.3164913  90.3791313   9.5981673  59.0614913  89.9941313
   5.2101673  58.8024913  89.6771313   5.0551673  59.4124913  90.2811313
   5.7441673  58.2444913  90.0831313   5.2661673  58.8104913  89.8261313
   3.5941673  57.2024913  80.3351313   3.6531673  57.8524913  80.9141313
   3.4051673  56.5064913  80.8261313   3.5751673  57.1954913  80.4931313
   8.8201673  61.5314913  86.2041313   8.3411673  61.8294913  85.5381313
   8.4641673  60.7554913  86.3821313   8.6971673  61.4604913  86.1321313
   2.8171673  59.2494913  84.7661313   1.9701673  59.0554913  84.8471313
   3.1411673  59.0844913  85.5591313   2.7391673  59.1964913  84.8951313
  12.5121673  65.6974913  78.1441313  13.2061673  65.2304913  77.8961313
  11.9731673  65.0994913  78.4811313  12.5351673  65.5394913  78.1571313
   9.7511673  58.4734913  87.3231313   9.7441673  57.6974913  87.7211313
   8.9101673  58.7074913  87.3161313   9.6261673  58.3934913  87.3811313
  11.0071673  58.5444913  84.7601313  10.7211673  58.9454913  85.4801313
  11.8671673  58.4824913  84.8871313  11.0921673  58.5944913  84.8851313
  12.1381673  64.1774913  85.2891313  12.4281673  64.4344913  84.5081313
  12.8331673  64.2734913  85.8081313  12.2841673  64.2294913  85.2501313
   9.4291673  56.3564913  91.7411313   9.7481673  57.1424913  91.9441313
   9.0591673  56.0864913  92.4841313   9.4221673  56.4324913  91.8811313
   8.7431673  62.7804913  77.2711313   9.0771673  61.9744913  77.3061313
   7.9881673  62.7084913  77.7011313   8.6811673  62.6504913  77.3401313
   9.2251673  54.6144913  82.9301313   8.4801673  54.2914913  83.2481313
   9.2271673  55.4404913  83.2101313   9.1151673  54.6884913  83.0181313
  11.6651673  60.5744913  90.6821313  12.2931673  60.0254913  90.4261313
  11.6041673  61.1394913  90.0201313  11.7491673  60.5774913  90.5461313
   6.1171673  60.6554913  76.6741313   6.8011673  60.1414913  76.5051313
   5.7001673  60.7014913  75.9091313   6.1561673  60.5864913  76.5361313
   8.1371673  50.9444913  90.3911313   8.8811673  51.3964913  90.3281313
   7.5711673  51.4144913  89.9221313   8.1641673  51.0814913  90.3131313
   3.3151673  58.2284913  87.4691313   3.7911673  58.6024913  88.0971313
   2.4921673  58.3624913  87.7281313   3.2641673  58.3034913  87.6001313
   2.5791673  65.6214913  82.6971313   3.1251673  66.3004913  82.7511313
   2.2291673  65.7034913  81.9021313   2.6081673  65.7344913  82.5871313
   9.4221673  48.9244913  88.0611313   9.1421673  49.7494913  88.0171313
  10.1381673  48.9774913  88.5571313   9.4871673  49.0544913  88.1281313
   1.7771673  49.6394913  90.0901313   2.4821673  49.9594913  89.6881313
   2.0181673  48.8324913  90.3171313   1.9161673  49.5674913  90.0641313
   8.9801673  63.0334913  91.5791313   9.3261673  63.3034913  92.3331313
   9.2741673  63.6154913  90.9991313   9.0751673  63.1594913  91.6051313
  10.8431673  55.1794913  76.9181313  11.2211673  55.8564913  76.5181313
  10.0011673  55.4034913  76.9491313  10.7741673  55.3124913  76.8631313
   6.3021673  53.7944913  91.7431313   5.6541673  54.2644913  92.0911313
   6.8671673  53.7054913  92.4021313   6.2901673  53.8504913  91.8921313
   5.9901673  55.3314913  88.0411313   6.2921673  55.7514913  88.7441313
   6.0261673  54.4914913  88.2731313   6.0401673  55.2694913  88.1791313
   3.4151673  65.4984913  91.9661313   3.8931673  64.8984913  91.5501313
   3.0641673  65.0554913  92.6311313   3.4341673  65.3444913  92.0031313
   8.5381673  54.7784913  80.2931313   8.7451673  54.5774913  81.1171313
   9.2941673  55.0464913  79.9511313   8.6801673  54.7884913  80.3641313
   9.5601673  50.8614913  81.7671313   8.8461673  50.3904913  81.9381313
   9.3981673  51.2024913  80.9811313   9.4311673  50.8424913  81.6761313
  10.0031673  58.8054913  80.1471313  10.4791673  58.0764913  80.0991313
   9.1821673  58.5194913  80.0711313   9.9521673  58.6554913  80.1281313
   3.4741673  60.7174913  90.9861313   2.6791673  60.6534913  91.3371313
   3.5451673  61.5644913  90.7911313   3.3671673  60.8324913  91.0091313
   6.2191673  59.9724913  82.5021313   6.2951673  60.3134913  83.3011313
   6.3881673  59.1254913  82.6231313   6.2551673  59.8974913  82.6381313
   3.7411673  59.2464913  82.0671313   3.4431673  58.9314913  82.8241313
   4.4361673  59.7194913  82.3021313   3.8001673  59.2694913  82.2141313
   3.9631673  63.3644913  90.0941313   4.6501673  63.2504913  90.6191313
   4.0971673  64.1554913  89.7501313   4.0841673  63.4644913  90.1211313
  12.1391673  55.9734913  91.9051313  11.2841673  55.8514913  92.0311313
  12.2921673  55.5784913  91.1421313  12.0351673  55.8964913  91.8111313
   6.6521673  56.6384913  90.4811313   6.3971673  55.9194913  90.9031313
   7.4731673  56.7544913  90.7511313   6.7361673  56.5494913  90.5831313
   7.6701673  66.2024913  84.5971313   7.2191673  66.8454913  84.9761313
   8.3781673  66.1234913  85.1021313   7.7081673  66.2854913  84.7281313
   4.3711673  61.2924913  87.5271313   3.6771673  61.6944913  87.8701313
   5.0481673  61.7254913  87.8661313   4.3681673  61.4154913  87.6281313
  10.7731673  55.9184913  79.5891313  10.8761673  55.8604913  78.7251313
  11.5141673  55.5864913  79.9071313  10.8981673  55.8614913  79.5081313
   4.6931673  62.8834913  80.6961313   4.4881673  63.7164913  80.5371313
   3.9181673  62.5014913  80.8181313   4.5481673  62.9504913  80.6911313
   9.8751673  56.0644913  88.9451313   9.8731673  55.2014913  89.0691313
   9.9421673  56.3884913  89.7521313   9.8851673  55.9844913  89.0821313
   4.7481673  51.0544913  83.5811313   4.0481673  51.5724913  83.5251313
   4.7861673  50.6744913  82.7971313   4.6501673  51.0754913  83.4571313
   8.3461673  51.5704913  86.3811313   9.2011673  51.6694913  86.5261313
   7.9771673  52.1234913  86.9461313   8.4181673  51.6674913  86.4861313
   8.6501673  56.8504913  84.8721313   9.3161673  57.3914913  85.0321313
   8.3051673  57.1614913  84.1331313   8.6971673  56.9764913  84.7871313
   8.9631673  64.9164913  80.6791313   8.7891673  64.2624913  81.2291313
   9.6761673  64.6454913  80.2561313   9.0431673  64.7794913  80.6981313
  11.8211673  49.4084913  89.5371313  11.7691673  49.3644913  90.4071313
  12.5081673  48.9054913  89.3471313  11.9151673  49.3284913  89.6371313
   3.9061673  51.5214913  86.5821313   3.1691673  51.0674913  86.6951313
   4.4771673  51.1194913  87.1051313   3.8811673  51.3944913  86.6761313
   6.6381673  62.3694913  88.3701313   6.8441673  62.6704913  89.1621313
   6.5771673  63.0914913  87.8851313   6.6591673  62.5204913  88.4151313
  11.4501673  61.0084913  87.8281313  11.4181673  60.1464913  87.6931313
  10.7571673  61.3104913  87.3941313  11.3431673  60.9254913  87.7441313
   9.5551673  64.2684913  86.6251313  10.0821673  64.1854913  85.9341313
   9.1641673  63.4904913  86.6791313   9.5751673  64.1414913  86.5311313
   6.0691673  49.7124913  85.8331313   6.7391673  50.2564913  85.9601313
   5.5661673  50.1364913  85.2601313   6.0941673  49.8554913  85.7671313
   5.4281673  55.5204913  83.3261313   5.9791673  54.9134913  83.6261313
   5.0031673  55.7834913  84.0411313   5.4471673  55.4694913  83.4751313
   7.3981673  57.3514913  79.8881313   7.4661673  56.5014913  80.0691313
   6.5751673  57.4374913  79.6101313   7.2861673  57.2384913  79.8741313
  10.4771673  66.3064913  76.3061313  11.1141673  66.1724913  76.8871313
  10.1361673  65.5124913  76.1891313  10.5211673  66.1694913  76.3741313
   6.5521673  62.5714913  78.6281313   6.3011673  62.4434913  79.4541313
   6.2351673  61.8764913  78.2071313   6.4681673  62.4504913  78.6881313
  11.1961673  54.2294913  86.7481313  10.3631673  54.4794913  86.6761313
  11.1401673  53.3894913  86.9771313  11.0651673  54.1424913  86.7711313
   3.4381673  60.7794913  78.0581313   4.1551673  60.4324913  77.7021313
   3.4041673  61.5794913  77.7101313   3.5391673  60.8464913  77.9541313
   4.8471673  49.4204913  62.2968903   4.6021673  49.9084913  61.6168903
   5.7101673  49.3474913  62.1968903   4.9381673  49.4814913  62.1818903
   4.6561673  56.3364913  66.9678903   4.1321673  56.9324913  67.3308903
   5.0531673  55.9684913  67.6518903   4.6371673  56.3704913  67.1228903
  10.8001673  63.7774913  59.9388903  11.5011673  63.2584913  59.9348903
  10.2131673  63.3324913  59.4698903  10.8171673  63.6344913  59.8688903
   7.3271673  57.4034913  63.6438903   7.4071673  57.4074913  62.7748903
   6.7431673  56.7714913  63.7928903   7.2521673  57.3104913  63.5378903
   2.1161673  61.8134913  65.5138903   2.4641673  61.0144913  65.5438903
   2.7811673  62.3174913  65.2588903   2.2661673  61.7694913  65.4808903
   2.1731673  61.2624913  61.7248903   2.5041673  60.6184913  62.2108903
   2.4131673  61.0514913  60.9138903   2.2571673  61.1364913  61.6768903
   4.1411673  55.3934913  73.0638903   3.2931673  55.2944913  72.8858903
   4.1701673  56.1384913  73.5178903   4.0201673  55.4894913  73.1048903
   8.6991673  48.3534913  72.1778903   8.5411673  49.1224913  71.7958903
   7.9271673  48.1334913  72.5218903   8.5611673  48.4344913  72.1728903
   6.1611673  52.9944913  56.6918903   5.7111673  53.6754913  56.9988903
   6.2751673  52.4904913  57.3948903   6.1121673  53.0204913  56.8408903
   6.2601673  65.3354913  58.7958903   6.9871673  65.8074913  58.8978903
   6.4891673  64.5414913  59.0758903   6.4021673  65.2884913  58.8528903
   4.4281673  65.7274913  60.7858903   4.6421673  66.2544913  61.4478903
   5.1951673  65.5534913  60.4068903   4.5731673  65.7794913  60.8278903
  11.5551673  52.9674913  62.9868903  11.2091673  53.6454913  63.4128903
  10.9191673  52.3694913  63.0028903  11.4101673  52.9794913  63.0518903
   6.8671673  65.7374913  69.0908903   7.6111673  66.1934913  69.0808903
   6.7461673  65.5234913  68.2538903   6.9591673  65.7734913  68.9658903
   3.0841673  49.6834913  73.8348903   3.2621673  48.8744913  73.5598903
   2.9411673  50.1244913  73.0958903   3.0891673  49.6294913  73.6848903
   3.6781673  54.6094913  62.6078903   3.9651673  54.3774913  61.8178903
   4.4101673  54.6884913  63.0768903   3.8281673  54.5864913  62.5608903
   4.4001673  54.9484913  57.7288903   4.6811673  55.7364913  57.9778903
   3.6241673  55.1134913  57.3658903   4.3271673  55.0894913  57.7118903
   8.4411673  66.9224913  59.1958903   9.1061673  66.7744913  58.6508903
   8.8011673  66.8394913  59.9858903   8.5931673  66.8884913  59.2318903
  11.2301673  51.2904913  68.3558903  11.9871673  51.3624913  67.9278903
  11.2931673  50.5174913  68.7548903  11.3511673  51.1874913  68.3508903
   6.1211673  62.9224913  72.7948903   6.0871673  63.3044913  73.5788903
   6.9751673  62.8804913  72.6238903   6.2421673  62.9724913  72.8858903
   3.2591673  63.1194913  57.5448903   3.0781673  63.6644913  58.2018903
   4.0251673  63.4094913  57.2438903   3.3451673  63.2434913  57.5978903
   6.7661673  51.0154913  58.5988903   7.3061673  50.3334913  58.6748903
   6.8281673  51.4134913  59.3728903   6.8551673  50.9734913  58.7248903
   4.0241673  53.3914913  59.9128903   3.5161673  52.7294913  59.6588903
   4.0761673  53.8954913  59.2028903   3.9571673  53.3684913  59.7708903
   4.5731673  66.0864913  70.2928903   5.3411673  66.0064913  69.8868903
   3.9901673  65.9654913  69.6548903   4.6001673  66.0564913  70.1388903
   4.0241673  50.3324913  59.8038903   3.5691673  49.9304913  59.1778903
   4.7971673  50.4874913  59.4288903   4.0711673  50.2964913  59.6558903
  10.8501673  66.6894913  63.1938903  10.3951673  67.4064913  63.3948903
  10.2361673  66.1184913  62.9518903  10.6921673  66.7114913  63.1878903
   2.6221673  52.6994913  64.3258903   2.6961673  53.2674913  63.6678903
   2.7431673  53.1914913  65.0358903   2.6501673  52.8564913  64.3338903
   7.8471673  62.5344913  62.7378903   8.5481673  62.0524913  62.9268903
   7.1871673  61.9654913  62.7828903   7.8531673  62.3794913  62.7718903
   6.4141673  52.8694913  70.2138903   6.3191673  53.1884913  71.0198903
   5.8211673  52.2304913  70.1758903   6.3121673  52.8214913  70.3278903
   7.1131673  59.5884913  68.4188903   6.5991673  59.1764913  68.9898903
   6.9871673  60.4324913  68.5998903   7.0191673  59.6524913  68.5298903
   7.6701673  48.8134913  63.0498903   7.7191673  48.4954913  63.8608903
   7.9931673  48.1694913  62.5568903   7.7251673  48.6714913  63.0968903
  10.1341673  53.0494913  71.3578903  10.9061673  52.8244913  71.6948903
   9.6591673  53.2664913  72.0578903  10.1781673  53.0484913  71.5108903
  10.3661673  60.0274913  58.5458903  10.4851673  59.7404913  59.3608903
  11.1731673  60.0484913  58.2158903  10.5021673  59.9884913  58.6178903
  12.6001673  64.5364913  72.7998903  11.9181673  64.8464913  72.3528903
  12.2311673  64.0784913  73.4448903  12.4441673  64.5144913  72.8288903
   8.2611673  56.5644913  58.1308903   8.0411673  57.2954913  57.7088903
   7.8131673  56.6154913  58.8778903   8.1621673  56.6794913  58.1788903
  12.4481673  51.4254913  57.5838903  11.7861673  50.8574913  57.6068903
  12.2551673  51.9374913  56.9038903  12.3221673  51.4174913  57.4868903
  12.7711673  55.8034913  70.1398903  12.9861673  55.0034913  69.8638903
  11.9211673  55.8634913  69.9508903  12.6771673  55.6944913  70.0708903
  10.4501673  50.9834913  59.8628903  11.1961673  50.5764913  60.0618903
  10.7131673  51.6984913  59.4378903  10.5991673  51.0294913  59.8298903
   4.3931673  63.4694913  64.4388903   3.8701673  64.1034913  64.1458903
   4.7031673  63.1054913  63.7098903   4.3611673  63.5094913  64.2878903
   6.9041673  53.2714913  64.9358903   7.2481673  53.4234913  65.7228903
   6.4511673  52.5334913  65.0488903   6.8881673  53.1844913  65.0688903
  10.4341673  64.9184913  70.8898903   9.7631673  65.4324913  71.1078903
  10.4971673  65.0184913  70.0258903  10.3441673  65.0094913  70.7948903
   8.2251673  54.6034913  67.4898903   7.5631673  54.9314913  67.9528903
   8.4121673  55.2374913  66.9208903   8.1551673  54.7454913  67.4738903
   2.4301673  65.6674913  68.4858903   2.1531673  65.0264913  67.9628903
   2.2221673  66.3934913  68.0478903   2.3591673  65.6804913  68.3438903
   4.8701673  50.5094913  70.9188903   5.0191673  49.6844913  70.6758903
   5.2491673  50.5644913  71.7028903   4.9481673  50.3954913  70.9988903
   6.4181673  52.5724913  61.0008903   6.9081673  53.2894913  60.9238903
   5.6281673  52.8334913  60.7378903   6.3741673  52.7164913  60.9508903
   7.7321673  60.4504913  72.9108903   8.2161673  61.1684913  73.0088903
   8.1261673  60.0234913  72.2598903   7.8621673  60.4934913  72.8288903
   3.0001673  54.0424913  66.7258903   3.4801673  54.7414913  66.9338903
   3.3731673  53.3954913  67.1768903   3.1261673  54.0504913  66.8228903
   5.1891673  57.2114913  58.9998903   5.1811673  57.9334913  58.5098903
   4.5501673  57.3464913  59.5768903   5.0941673  57.3384913  59.0128903
  10.1611673  61.0814913  62.9808903  10.5171673  60.7314913  63.6958903
  10.1531673  60.4204913  62.4108903  10.2131673  60.9314913  63.0018903
   6.2061673  64.1474913  66.8248903   5.6031673  63.8514913  66.2678903
   6.7511673  64.5994913  66.3158903   6.1971673  64.1704913  66.6668903
   6.2191673  60.9984913  66.2248903   5.4221673  61.2224913  66.4988903
   6.4771673  60.4044913  66.8098903   6.1391673  60.9434913  66.3518903
   2.4031673  65.3264913  59.0748903   3.0251673  65.4894913  59.6648903
   2.4391673  66.0174913  58.5428903   2.5001673  65.4524913  59.0838903
   9.4791673  58.9964913  71.0708903   9.5341673  59.1214913  70.2088903
  10.2321673  59.3164913  71.3728903   9.5981673  59.0614913  70.9878903
   5.6701673  64.3454913  75.3478903   5.8341673  64.6284913  76.1568903
   5.9331673  65.0064913  74.8428903   5.7331673  64.4854913  75.3928903
  10.5111673  49.2944913  74.0578903   9.8741673  48.8944913  73.6158903
  10.5371673  48.8634913  74.8158903  10.4211673  49.1724913  74.1038903
   5.2101673  58.8024913  70.6708903   5.0551673  59.4124913  71.2748903
   5.7441673  58.2444913  71.0768903   5.2661673  58.8104913  70.8198903
   3.5941673  57.2024913  61.3288903   3.6531673  57.8524913  61.9078903
   3.4051673  56.5064913  61.8198903   3.5751673  57.1954913  61.4868903
   8.8201673  61.5314913  67.1978903   8.3411673  61.8294913  66.5318903
   8.4641673  60.7554913  67.3758903   8.6971673  61.4604913  67.1258903
   2.8171673  59.2494913  65.7598903   1.9701673  59.0554913  65.8408903
   3.1411673  59.0844913  66.5528903   2.7391673  59.1964913  65.8888903
  12.5121673  65.6974913  59.1378903  13.2061673  65.2304913  58.8898903
  11.9731673  65.0994913  59.4748903  12.5351673  65.5394913  59.1508903
   9.7511673  58.4734913  68.3168903   9.7441673  57.6974913  68.7148903
   8.9101673  58.7074913  68.3098903   9.6261673  58.3934913  68.3748903
  11.0071673  58.5444913  65.7538903  10.7211673  58.9454913  66.4738903
  11.8671673  58.4824913  65.8808903  11.0921673  58.5944913  65.8788903
   8.6691673  52.4684913  74.2938903   8.1441673  52.9274913  74.8178903
   8.3081673  51.6734913  74.2878903   8.5381673  52.4184913  74.3698903
  12.1381673  64.1774913  66.2828903  12.4281673  64.4344913  65.5018903
  12.8331673  64.2734913  66.8018903  12.2841673  64.2294913  66.2438903
   7.1611673  56.0374913  74.3698903   7.2341673  56.1414913  75.2328903
   6.5271673  56.5954913  74.1488903   7.0781673  56.1354913  74.4648903
   9.4291673  56.3564913  72.7348903   9.7481673  57.1424913  72.9378903
   9.0591673  56.0864913  73.4778903   9.4221673  56.4324913  72.8748903
   8.7431673  62.7804913  58.2648903   9.0771673  61.9744913  58.2998903
   7.9881673  62.7084913  58.6948903   8.6811673  62.6504913  58.3338903
   9.2251673  54.6144913  63.9238903   8.4801673  54.2914913  64.2418903
   9.2271673  55.4404913  64.2038903   9.1151673  54.6884913  64.0118903
  12.1271673  56.8984913  75.4698903  12.0751673  56.5574913  74.6688903
  12.8641673  57.3654913  75.4478903  12.2281673  56.9174913  75.3478903
  11.6651673  60.5744913  71.6758903  12.2931673  60.0254913  71.4198903
  11.6041673  61.1394913  71.0138903  11.7491673  60.5774913  71.5398903
   6.1171673  60.6554913  57.6678903   6.8011673  60.1414913  57.4988903
   5.7001673  60.7014913  56.9028903   6.1561673  60.5864913  57.5298903
   8.1371673  50.9444913  71.3848903   8.8811673  51.3964913  71.3218903
   7.5711673  51.4144913  70.9158903   8.1641673  51.0814913  71.3068903
   3.3151673  58.2284913  68.4628903   3.7911673  58.6024913  69.0908903
   2.4921673  58.3624913  68.7218903   3.2641673  58.3034913  68.5938903
   2.5791673  65.6214913  63.6908903   3.1251673  66.3004913  63.7448903
   2.2291673  65.7034913  62.8958903   2.6081673  65.7344913  63.5808903
   9.4221673  48.9244913  69.0548903   9.1421673  49.7494913  69.0108903
  10.1381673  48.9774913  69.5508903   9.4871673  49.0544913  69.1218903
   1.7771673  49.6394913  71.0838903   2.4821673  49.9594913  70.6818903
   2.0181673  48.8324913  71.3108903   1.9161673  49.5674913  71.0578903
   5.0711673  60.4834913  74.0688903   5.8281673  60.7694913  73.7428903
   4.5241673  60.5354913  73.3908903   5.1021673  60.5334913  73.9198903
   8.9801673  63.0334913  72.5728903   9.3261673  63.3034913  73.3268903
   9.2741673  63.6154913  71.9928903   9.0751673  63.1594913  72.5988903
  10.8431673  55.1794913  57.9118903  11.2211673  55.8564913  57.5118903
  10.0011673  55.4034913  57.9428903  10.7741673  55.3124913  57.8568903
   6.3021673  53.7944913  72.7368903   5.6541673  54.2644913  73.0848903
   6.8671673  53.7054913  73.3958903   6.2901673  53.8504913  72.8858903
   5.9901673  55.3314913  69.0348903   6.2921673  55.7514913  69.7378903
   6.0261673  54.4914913  69.2668903   6.0401673  55.2694913  69.1728903
   3.4151673  65.4984913  72.9598903   3.8931673  64.8984913  72.5438903
   3.0641673  65.0554913  73.6248903   3.4341673  65.3444913  72.9968903
   8.5381673  54.7784913  61.2868903   8.7451673  54.5774913  62.1108903
   9.2941673  55.0464913  60.9448903   8.6801673  54.7884913  61.3578903
   9.5601673  50.8614913  62.7608903   8.8461673  50.3904913  62.9318903
   9.3981673  51.2024913  61.9748903   9.4311673  50.8424913  62.6698903
  10.0031673  58.8054913  61.1408903  10.4791673  58.0764913  61.0928903
   9.1821673  58.5194913  61.0648903   9.9521673  58.6554913  61.1218903
   3.4741673  60.7174913  71.9798903   2.6791673  60.6534913  72.3308903
   3.5451673  61.5644913  71.7848903   3.3671673  60.8324913  72.0028903
   6.2191673  59.9724913  63.4958903   6.2951673  60.3134913  64.2948903
   6.3881673  59.1254913  63.6168903   6.2551673  59.8974913  63.6318903
   3.7411673  59.2464913  63.0608903   3.4431673  58.9314913  63.8178903
   4.4361673  59.7194913  63.2958903   3.8001673  59.2694913  63.2078903
   3.9631673  63.3644913  71.0878903   4.6501673  63.2504913  71.6128903
   4.0971673  64.1554913  70.7438903   4.0841673  63.4644913  71.1148903
  12.1391673  55.9734913  72.8988903  11.2841673  55.8514913  73.0248903
  12.2921673  55.5784913  72.1358903  12.0351673  55.8964913  72.8048903
   6.6521673  56.6384913  71.4748903   6.3971673  55.9194913  71.8968903
   7.4731673  56.7544913  71.7448903   6.7361673  56.5494913  71.5768903
   4.5861673  57.8284913  74.6618903   4.9091673  58.5144913  74.2298903
   3.8821673  58.1514913  75.0638903   4.5291673  57.9774913  74.6568903
   7.6701673  66.2024913  65.5908903   7.2191673  66.8454913  65.9698903
   8.3781673  66.1234913  66.0958903   7.7081673  66.2854913  65.7218903
   4.3711673  61.2924913  68.5208903   3.6771673  61.6944913  68.8638903
   5.0481673  61.7254913  68.8598903   4.3681673  61.4154913  68.6218903
   9.7481673  63.8854913  75.1008903  10.5241673  63.4954913  75.1838903
   9.2791673  63.5494913  75.7558903   9.7931673  63.7784913  75.2098903
  10.7731673  55.9184913  60.5828903  10.8761673  55.8604913  59.7188903
  11.5141673  55.5864913  60.9008903  10.8981673  55.8614913  60.5018903
   4.6931673  62.8834913  61.6898903   4.4881673  63.7164913  61.5308903
   3.9181673  62.5014913  61.8118903   4.5481673  62.9504913  61.6848903
   9.8751673  56.0644913  69.9388903   9.8731673  55.2014913  70.0628903
   9.9421673  56.3884913  70.7458903   9.8851673  55.9844913  70.0758903
   5.7541673  50.8644913  73.7208903   5.8461673  51.5764913  74.2148903
   5.1171673  50.4194913  74.1178903   5.6731673  50.9034913  73.8528903
   4.7481673  51.0544913  64.5748903   4.0481673  51.5724913  64.5188903
   4.7861673  50.6744913  63.7908903   4.6501673  51.0754913  64.4508903
   8.3461673  51.5704913  67.3748903   9.2011673  51.6694913  67.5198903
   7.9771673  52.1234913  67.9398903   8.4181673  51.6674913  67.4798903
   8.6501673  56.8504913  65.8658903   9.3161673  57.3914913  66.0258903
   8.3051673  57.1614913  65.1268903   8.6971673  56.9764913  65.7808903
   8.9631673  64.9164913  61.6728903   8.7891673  64.2624913  62.2228903
   9.6761673  64.6454913  61.2498903   9.0431673  64.7794913  61.6918903
  11.8211673  49.4084913  70.5308903  11.7691673  49.3644913  71.4008903
  12.5081673  48.9054913  70.3408903  11.9151673  49.3284913  70.6308903
   3.9061673  51.5214913  67.5758903   3.1691673  51.0674913  67.6888903
   4.4771673  51.1194913  68.0988903   3.8811673  51.3944913  67.6698903
   6.6381673  62.3694913  69.3638903   6.8441673  62.6704913  70.1558903
   6.5771673  63.0914913  68.8788903   6.6591673  62.5204913  69.4088903
   6.1721673  66.5834913  73.6098903   5.4191673  66.5654913  73.1688903
   6.3401673  67.4354913  73.6938903   6.0861673  66.7064913  73.5568903
  11.4501673  61.0084913  68.8218903  11.4181673  60.1464913  68.6868903
  10.7571673  61.3104913  68.3878903  11.3431673  60.9254913  68.7378903
   9.5551673  64.2684913  67.6188903  10.0821673  64.1854913  66.9278903
   9.1641673  63.4904913  67.6728903   9.5751673  64.1414913  67.5248903
   6.0691673  49.7124913  66.8268903   6.7391673  50.2564913  66.9538903
   5.5661673  50.1364913  66.2538903   6.0941673  49.8554913  66.7608903
   5.4281673  55.5204913  64.3198903   5.9791673  54.9134913  64.6198903
   5.0031673  55.7834913  65.0348903   5.4471673  55.4694913  64.4688903
   7.3981673  57.3514913  60.8818903   7.4661673  56.5014913  61.0628903
   6.5751673  57.4374913  60.6038903   7.2861673  57.2384913  60.8678903
  10.4771673  66.3064913  57.2998903  11.1141673  66.1724913  57.8808903
  10.1361673  65.5124913  57.1828903  10.5211673  66.1694913  57.3678903
  10.6721673  58.7244913  74.0328903  11.3061673  58.5544913  74.6068903
  11.0891673  59.1274913  73.3808903  10.8271673  58.7594913  74.0218903
   6.5521673  62.5714913  59.6218903   6.3011673  62.4434913  60.4478903
   6.2351673  61.8764913  59.2008903   6.4681673  62.4504913  59.6818903
  11.2971673  53.2884913  74.7708903  11.1011673  53.9324913  75.3258903
  10.5751673  52.7984913  74.7628903  11.1621673  53.3114913  74.8518903
  11.1961673  54.2294913  67.7418903  10.3631673  54.4794913  67.6698903
  11.1401673  53.3894913  67.9708903  11.0651673  54.1424913  67.7648903
   8.0831673  58.8354913  75.3878903   8.9541673  58.7994913  75.3518903
   7.8641673  59.2554913  74.6558903   8.1801673  58.8914913  75.2748903
   3.4381673  60.7794913  59.0518903   4.1551673  60.4324913  58.6958903
   3.4041673  61.5794913  58.7038903   3.5391673  60.8464913  58.9478903
   4.8471673  49.4204913  43.2906493   4.6021673  49.9084913  42.6106493
   5.7101673  49.3474913  43.1906493   4.9381673  49.4814913  43.1756493
   4.6561673  56.3364913  47.9616493   4.1321673  56.9324913  48.3246493
   5.0531673  55.9684913  48.6456493   4.6371673  56.3704913  48.1166493
  10.8001673  63.7774913  40.9326493  11.5011673  63.2584913  40.9286493
  10.2131673  63.3324913  40.4636493  10.8171673  63.6344913  40.8626493
   7.3271673  57.4034913  44.6376493   7.4071673  57.4074913  43.7686493
   6.7431673  56.7714913  44.7866493   7.2521673  57.3104913  44.5316493
   2.1161673  61.8134913  46.5076493   2.4641673  61.0144913  46.5376493
   2.7811673  62.3174913  46.2526493   2.2661673  61.7694913  46.4746493
   2.1731673  61.2624913  42.7186493   2.5041673  60.6184913  43.2046493
   2.4131673  61.0514913  41.9076493   2.2571673  61.1364913  42.6706493
   4.1411673  55.3934913  54.0576493   3.2931673  55.2944913  53.8796493
   4.1701673  56.1384913  54.5116493   4.0201673  55.4894913  54.0986493
   8.6991673  48.3534913  53.1716493   8.5411673  49.1224913  52.7896493
   7.9271673  48.1334913  53.5156493   8.5611673  48.4344913  53.1666493
   6.1611673  52.9944913  37.6856493   5.7111673  53.6754913  37.9926493
   6.2751673  52.4904913  38.3886493   6.1121673  53.0204913  37.8346493
   6.2601673  65.3354913  39.7896493   6.9871673  65.8074913  39.8916493
   6.4891673  64.5414913  40.0696493   6.4021673  65.2884913  39.8466493
   4.4281673  65.7274913  41.7796493   4.6421673  66.2544913  42.4416493
   5.1951673  65.5534913  41.4006493   4.5731673  65.7794913  41.8216493
  11.5551673  52.9674913  43.9806493  11.2091673  53.6454913  44.4066493
  10.9191673  52.3694913  43.9966493  11.4101673  52.9794913  44.0456493
   6.8671673  65.7374913  50.0846493   7.6111673  66.1934913  50.0746493
   6.7461673  65.5234913  49.2476493   6.9591673  65.7734913  49.9596493
   3.0841673  49.6834913  54.8286493   3.2621673  48.8744913  54.5536493
   2.9411673  50.1244913  54.0896493   3.0891673  49.6294913  54.6786493
   3.6781673  54.6094913  43.6016493   3.9651673  54.3774913  42.8116493
   4.4101673  54.6884913  44.0706493   3.8281673  54.5864913  43.5546493
   4.4001673  54.9484913  38.7226493   4.6811673  55.7364913  38.9716493
   3.6241673  55.1134913  38.3596493   4.3271673  55.0894913  38.7056493
   8.4411673  66.9224913  40.1896493   9.1061673  66.7744913  39.6446493
   8.8011673  66.8394913  40.9796493   8.5931673  66.8884913  40.2256493
  11.2301673  51.2904913  49.3496493  11.9871673  51.3624913  48.9216493
  11.2931673  50.5174913  49.7486493  11.3511673  51.1874913  49.3446493
   6.1211673  62.9224913  53.7886493   6.0871673  63.3044913  54.5726493
   6.9751673  62.8804913  53.6176493   6.2421673  62.9724913  53.8796493
   3.2591673  63.1194913  38.5386493   3.0781673  63.6644913  39.1956493
   4.0251673  63.4094913  38.2376493   3.3451673  63.2434913  38.5916493
   6.7661673  51.0154913  39.5926493   7.3061673  50.3334913  39.6686493
   6.8281673  51.4134913  40.3666493   6.8551673  50.9734913  39.7186493
   4.0241673  53.3914913  40.9066493   3.5161673  52.7294913  40.6526493
   4.0761673  53.8954913  40.1966493   3.9571673  53.3684913  40.7646493
   4.5731673  66.0864913  51.2866493   5.3411673  66.0064913  50.8806493
   3.9901673  65.9654913  50.6486493   4.6001673  66.0564913  51.1326493
   4.0241673  50.3324913  40.7976493   3.5691673  49.9304913  40.1716493
   4.7971673  50.4874913  40.4226493   4.0711673  50.2964913  40.6496493
  10.8501673  66.6894913  44.1876493  10.3951673  67.4064913  44.3886493
  10.2361673  66.1184913  43.9456493  10.6921673  66.7114913  44.1816493
   2.6221673  52.6994913  45.3196493   2.6961673  53.2674913  44.6616493
   2.7431673  53.1914913  46.0296493   2.6501673  52.8564913  45.3276493
   7.8471673  62.5344913  43.7316493   8.5481673  62.0524913  43.9206493
   7.1871673  61.9654913  43.7766493   7.8531673  62.3794913  43.7656493
   6.4141673  52.8694913  51.2076493   6.3191673  53.1884913  52.0136493
   5.8211673  52.2304913  51.1696493   6.3121673  52.8214913  51.3216493
   7.1131673  59.5884913  49.4126493   6.5991673  59.1764913  49.9836493
   6.9871673  60.4324913  49.5936493   7.0191673  59.6524913  49.5236493
   7.6701673  48.8134913  44.0436493   7.7191673  48.4954913  44.8546493
   7.9931673  48.1694913  43.5506493   7.7251673  48.6714913  44.0906493
  10.1341673  53.0494913  52.3516493  10.9061673  52.8244913  52.6886493
   9.6591673  53.2664913  53.0516493  10.1781673  53.0484913  52.5046493
  10.3661673  60.0274913  39.5396493  10.4851673  59.7404913  40.3546493
  11.1731673  60.0484913  39.2096493  10.5021673  59.9884913  39.6116493
  12.6001673  64.5364913  53.7936493  11.9181673  64.8464913  53.3466493
  12.2311673  64.0784913  54.4386493  12.4441673  64.5144913  53.8226493
   8.2611673  56.5644913  39.1246493   8.0411673  57.2954913  38.7026493
   7.8131673  56.6154913  39.8716493   8.1621673  56.6794913  39.1726493
  12.4481673  51.4254913  38.5776493  11.7861673  50.8574913  38.6006493
  12.2551673  51.9374913  37.8976493  12.3221673  51.4174913  38.4806493
  12.7711673  55.8034913  51.1336493  12.9861673  55.0034913  50.8576493
  11.9211673  55.8634913  50.9446493  12.6771673  55.6944913  51.0646493
  10.4501673  50.9834913  40.8566493  11.1961673  50.5764913  41.0556493
  10.7131673  51.6984913  40.4316493  10.5991673  51.0294913  40.8236493
   4.3931673  63.4694913  45.4326493   3.8701673  64.1034913  45.1396493
   4.7031673  63.1054913  44.7036493   4.3611673  63.5094913  45.2816493
   6.9041673  53.2714913  45.9296493   7.2481673  53.4234913  46.7166493
   6.4511673  52.5334913  46.0426493   6.8881673  53.1844913  46.0626493
  10.4341673  64.9184913  51.8836493   9.7631673  65.4324913  52.1016493
  10.4971673  65.0184913  51.0196493  10.3441673  65.0094913  51.7886493
   8.2251673  54.6034913  48.4836493   7.5631673  54.9314913  48.9466493
   8.4121673  55.2374913  47.9146493   8.1551673  54.7454913  48.4676493
   2.4301673  65.6674913  49.4796493   2.1531673  65.0264913  48.9566493
   2.2221673  66.3934913  49.0416493   2.3591673  65.6804913  49.3376493
   4.8701673  50.5094913  51.9126493   5.0191673  49.6844913  51.6696493
   5.2491673  50.5644913  52.6966493   4.9481673  50.3954913  51.9926493
   6.4181673  52.5724913  41.9946493   6.9081673  53.2894913  41.9176493
   5.6281673  52.8334913  41.7316493   6.3741673  52.7164913  41.9446493
   7.7321673  60.4504913  53.9046493   8.2161673  61.1684913  54.0026493
   8.1261673  60.0234913  53.2536493   7.8621673  60.4934913  53.8226493
   3.0001673  54.0424913  47.7196493   3.4801673  54.7414913  47.9276493
   3.3731673  53.3954913  48.1706493   3.1261673  54.0504913  47.8166493
   5.1891673  57.2114913  39.9936493   5.1811673  57.9334913  39.5036493
   4.5501673  57.3464913  40.5706493   5.0941673  57.3384913  40.0066493
  10.1611673  61.0814913  43.9746493  10.5171673  60.7314913  44.6896493
  10.1531673  60.4204913  43.4046493  10.2131673  60.9314913  43.9956493
   6.2061673  64.1474913  47.8186493   5.6031673  63.8514913  47.2616493
   6.7511673  64.5994913  47.3096493   6.1971673  64.1704913  47.6606493
   6.2191673  60.9984913  47.2186493   5.4221673  61.2224913  47.4926493
   6.4771673  60.4044913  47.8036493   6.1391673  60.9434913  47.3456493
   2.4031673  65.3264913  40.0686493   3.0251673  65.4894913  40.6586493
   2.4391673  66.0174913  39.5366493   2.5001673  65.4524913  40.0776493
   9.4791673  58.9964913  52.0646493   9.5341673  59.1214913  51.2026493
  10.2321673  59.3164913  52.3666493   9.5981673  59.0614913  51.9816493
   5.6701673  64.3454913  56.3416493   5.8341673  64.6284913  57.1506493
   5.9331673  65.0064913  55.8366493   5.7331673  64.4854913  56.3866493
  10.5111673  49.2944913  55.0516493   9.8741673  48.8944913  54.6096493
  10.5371673  48.8634913  55.8096493  10.4211673  49.1724913  55.0976493
   5.2101673  58.8024913  51.6646493   5.0551673  59.4124913  52.2686493
   5.7441673  58.2444913  52.0706493   5.2661673  58.8104913  51.8136493
   3.5941673  57.2024913  42.3226493   3.6531673  57.8524913  42.9016493
   3.4051673  56.5064913  42.8136493   3.5751673  57.1954913  42.4806493
   8.8201673  61.5314913  48.1916493   8.3411673  61.8294913  47.5256493
   8.4641673  60.7554913  48.3696493   8.6971673  61.4604913  48.1196493
   2.8171673  59.2494913  46.7536493   1.9701673  59.0554913  46.8346493
   3.1411673  59.0844913  47.5466493   2.7391673  59.1964913  46.8826493
  12.5121673  65.6974913  40.1316493  13.2061673  65.2304913  39.8836493
  11.9731673  65.0994913  40.4686493  12.5351673  65.5394913  40.1446493
   9.7511673  58.4734913  49.3106493   9.7441673  57.6974913  49.7086493
   8.9101673  58.7074913  49.3036493   9.6261673  58.3934913  49.3686493
  11.0071673  58.5444913  46.7476493  10.7211673  58.9454913  47.4676493
  11.8671673  58.4824913  46.8746493  11.0921673  58.5944913  46.8726493
   8.6691673  52.4684913  55.2876493   8.1441673  52.9274913  55.8116493
   8.3081673  51.6734913  55.2816493   8.5381673  52.4184913  55.3636493
  12.1381673  64.1774913  47.2766493  12.4281673  64.4344913  46.4956493
  12.8331673  64.2734913  47.7956493  12.2841673  64.2294913  47.2376493
   7.1611673  56.0374913  55.3636493   7.2341673  56.1414913  56.2266493
   6.5271673  56.5954913  55.1426493   7.0781673  56.1354913  55.4586493
   9.4291673  56.3564913  53.7286493   9.7481673  57.1424913  53.9316493
   9.0591673  56.0864913  54.4716493   9.4221673  56.4324913  53.8686493
   8.7431673  62.7804913  39.2586493   9.0771673  61.9744913  39.2936493
   7.9881673  62.7084913  39.6886493   8.6811673  62.6504913  39.3276493
   9.2251673  54.6144913  44.9176493   8.4801673  54.2914913  45.2356493
   9.2271673  55.4404913  45.1976493   9.1151673  54.6884913  45.0056493
  12.1271673  56.8984913  56.4636493  12.0751673  56.5574913  55.6626493
  12.8641673  57.3654913  56.4416493  12.2281673  56.9174913  56.3416493
  11.6651673  60.5744913  52.6696493  12.2931673  60.0254913  52.4136493
  11.6041673  61.1394913  52.0076493  11.7491673  60.5774913  52.5336493
   6.1171673  60.6554913  38.6616493   6.8011673  60.1414913  38.4926493
   5.7001673  60.7014913  37.8966493   6.1561673  60.5864913  38.5236493
   8.1371673  50.9444913  52.3786493   8.8811673  51.3964913  52.3156493
   7.5711673  51.4144913  51.9096493   8.1641673  51.0814913  52.3006493
   3.3151673  58.2284913  49.4566493   3.7911673  58.6024913  50.0846493
   2.4921673  58.3624913  49.7156493   3.2641673  58.3034913  49.5876493
   2.5791673  65.6214913  44.6846493   3.1251673  66.3004913  44.7386493
   2.2291673  65.7034913  43.8896493   2.6081673  65.7344913  44.5746493
   9.4221673  48.9244913  50.0486493   9.1421673  49.7494913  50.0046493
  10.1381673  48.9774913  50.5446493   9.4871673  49.0544913  50.1156493
   1.7771673  49.6394913  52.0776493   2.4821673  49.9594913  51.6756493
   2.0181673  48.8324913  52.3046493   1.9161673  49.5674913  52.0516493
   5.0711673  60.4834913  55.0626493   5.8281673  60.7694913  54.7366493
   4.5241673  60.5354913  54.3846493   5.1021673  60.5334913  54.9136493
   8.9801673  63.0334913  53.5666493   9.3261673  63.3034913  54.3206493
   9.2741673  63.6154913  52.9866493   9.0751673  63.1594913  53.5926493
  10.8431673  55.1794913  38.9056493  11.2211673  55.8564913  38.5056493
  10.0011673  55.4034913  38.9366493  10.7741673  55.3124913  38.8506493
   6.3021673  53.7944913  53.7306493   5.6541673  54.2644913  54.0786493
   6.8671673  53.7054913  54.3896493   6.2901673  53.8504913  53.8796493
   5.9901673  55.3314913  50.0286493   6.2921673  55.7514913  50.7316493
   6.0261673  54.4914913  50.2606493   6.0401673  55.2694913  50.1666493
   3.4151673  65.4984913  53.9536493   3.8931673  64.8984913  53.5376493
   3.0641673  65.0554913  54.6186493   3.4341673  65.3444913  53.9906493
   8.5381673  54.7784913  42.2806493   8.7451673  54.5774913  43.1046493
   9.2941673  55.0464913  41.9386493   8.6801673  54.7884913  42.3516493
   9.5601673  50.8614913  43.7546493   8.8461673  50.3904913  43.9256493
   9.3981673  51.2024913  42.9686493   9.4311673  50.8424913  43.6636493
  10.0031673  58.8054913  42.1346493  10.4791673  58.0764913  42.0866493
   9.1821673  58.5194913  42.0586493   9.9521673  58.6554913  42.1156493
   3.4741673  60.7174913  52.9736493   2.6791673  60.6534913  53.3246493
   3.5451673  61.5644913  52.7786493   3.3671673  60.8324913  52.9966493
   6.2191673  59.9724913  44.4896493   6.2951673  60.3134913  45.2886493
   6.3881673  59.1254913  44.6106493   6.2551673  59.8974913  44.6256493
   3.7411673  59.2464913  44.0546493   3.4431673  58.9314913  44.8116493
   4.4361673  59.7194913  44.2896493   3.8001673  59.2694913  44.2016493
   3.9631673  63.3644913  52.0816493   4.6501673  63.2504913  52.6066493
   4.0971673  64.1554913  51.7376493   4.0841673  63.4644913  52.1086493
  12.1391673  55.9734913  53.8926493  11.2841673  55.8514913  54.0186493
  12.2921673  55.5784913  53.1296493  12.0351673  55.8964913  53.7986493
   6.6521673  56.6384913  52.4686493   6.3971673  55.9194913  52.8906493
   7.4731673  56.7544913  52.7386493   6.7361673  56.5494913  52.5706493
   4.5861673  57.8284913  55.6556493   4.9091673  58.5144913  55.2236493
   3.8821673  58.1514913  56.0576493   4.5291673  57.9774913  55.6506493
   7.6701673  66.2024913  46.5846493   7.2191673  66.8454913  46.9636493
   8.3781673  66.1234913  47.0896493   7.7081673  66.2854913  46.7156493
   4.3711673  61.2924913  49.5146493   3.6771673  61.6944913  49.8576493
   5.0481673  61.7254913  49.8536493   4.3681673  61.4154913  49.6156493
   9.7481673  63.8854913  56.0946493  10.5241673  63.4954913  56.1776493
   9.2791673  63.5494913  56.7496493   9.7931673  63.7784913  56.2036493
  10.7731673  55.9184913  41.5766493  10.8761673  55.8604913  40.7126493
  11.5141673  55.5864913  41.8946493  10.8981673  55.8614913  41.4956493
   4.6931673  62.8834913  42.6836493   4.4881673  63.7164913  42.5246493
   3.9181673  62.5014913  42.8056493   4.5481673  62.9504913  42.6786493
   9.8751673  56.0644913  50.9326493   9.8731673  55.2014913  51.0566493
   9.9421673  56.3884913  51.7396493   9.8851673  55.9844913  51.0696493
   5.7541673  50.8644913  54.7146493   5.8461673  51.5764913  55.2086493
   5.1171673  50.4194913  55.1116493   5.6731673  50.9034913  54.8466493
   4.7481673  51.0544913  45.5686493   4.0481673  51.5724913  45.5126493
   4.7861673  50.6744913  44.7846493   4.6501673  51.0754913  45.4446493
   8.3461673  51.5704913  48.3686493   9.2011673  51.6694913  48.5136493
   7.9771673  52.1234913  48.9336493   8.4181673  51.6674913  48.4736493
   8.6501673  56.8504913  46.8596493   9.3161673  57.3914913  47.0196493
   8.3051673  57.1614913  46.1206493   8.6971673  56.9764913  46.7746493
   8.9631673  64.9164913  42.6666493   8.7891673  64.2624913  43.2166493
   9.6761673  64.6454913  42.2436493   9.0431673  64.7794913  42.6856493
  11.8211673  49.4084913  51.5246493  11.7691673  49.3644913  52.3946493
  12.5081673  48.9054913  51.3346493  11.9151673  49.3284913  51.6246493
   3.9061673  51.5214913  48.5696493   3.1691673  51.0674913  48.6826493
   4.4771673  51.1194913  49.0926493   3.8811673  51.3944913  48.6636493
   6.6381673  62.3694913  50.3576493   6.8441673  62.6704913  51.1496493
   6.5771673  63.0914913  49.8726493   6.6591673  62.5204913  50.4026493
   6.1721673  66.5834913  54.6036493   5.4191673  66.5654913  54.1626493
   6.3401673  67.4354913  54.6876493   6.0861673  66.7064913  54.5506493
  11.4501673  61.0084913  49.8156493  11.4181673  60.1464913  49.6806493
  10.7571673  61.3104913  49.3816493  11.3431673  60.9254913  49.7316493
   9.5551673  64.2684913  48.6126493  10.0821673  64.1854913  47.9216493
   9.1641673  63.4904913  48.6666493   9.5751673  64.1414913  48.5186493
   6.0691673  49.7124913  47.8206493   6.7391673  50.2564913  47.9476493
   5.5661673  50.1364913  47.2476493   6.0941673  49.8554913  47.7546493
   5.4281673  55.5204913  45.3136493   5.9791673  54.9134913  45.6136493
   5.0031673  55.7834913  46.0286493   5.4471673  55.4694913  45.4626493
   7.3981673  57.3514913  41.8756493   7.4661673  56.5014913  42.0566493
   6.5751673  57.4374913  41.5976493   7.2861673  57.2384913  41.8616493
  10.4771673  66.3064913  38.2936493  11.1141673  66.1724913  38.8746493
  10.1361673  65.5124913  38.1766493  10.5211673  66.1694913  38.3616493
  10.6721673  58.7244913  55.0266493  11.3061673  58.5544913  55.6006493
  11.0891673  59.1274913  54.3746493  10.8271673  58.7594913  55.0156493
   6.5521673  62.5714913  40.6156493   6.3011673  62.4434913  41.4416493
   6.2351673  61.8764913  40.1946493   6.4681673  62.4504913  40.6756493
  11.2971673  53.2884913  55.7646493  11.1011673  53.9324913  56.3196493
  10.5751673  52.7984913  55.7566493  11.1621673  53.3114913  55.8456493
  11.1961673  54.2294913  48.7356493  10.3631673  54.4794913  48.6636493
  11.1401673  53.3894913  48.9646493  11.0651673  54.1424913  48.7586493
   8.0831673  58.8354913  56.3816493   8.9541673  58.7994913  56.3456493
   7.8641673  59.2554913  55.6496493   8.1801673  58.8914913  56.2686493
   3.4381673  60.7794913  40.0456493   4.1551673  60.4324913  39.6896493
   3.4041673  61.5794913  39.6976493   3.5391673  60.8464913  39.9416493
   4.8471673  49.4204913  24.2844083   4.6021673  49.9084913  23.6044083
   5.7101673  49.3474913  24.1844083   4.9381673  49.4814913  24.1694083
   4.6561673  56.3364913  28.9554083   4.1321673  56.9324913  29.3184083
   5.0531673  55.9684913  29.6394083   4.6371673  56.3704913  29.1104083
  10.8001673  63.7774913  21.9264083  11.5011673  63.2584913  21.9224083
  10.2131673  63.3324913  21.4574083  10.8171673  63.6344913  21.8564083
   7.3271673  57.4034913  25.6314083   7.4071673  57.4074913  24.7624083
   6.7431673  56.7714913  25.7804083   7.2521673  57.3104913  25.5254083
   2.1161673  61.8134913  27.5014083   2.4641673  61.0144913  27.5314083
   2.7811673  62.3174913  27.2464083   2.2661673  61.7694913  27.4684083
   2.1731673  61.2624913  23.7124083   2.5041673  60.6184913  24.1984083
   2.4131673  61.0514913  22.9014083   2.2571673  61.1364913  23.6644083
   4.1411673  55.3934913  35.0514083   3.2931673  55.2944913  34.8734083
   4.1701673  56.1384913  35.5054083   4.0201673  55.4894913  35.0924083
   8.6991673  48.3534913  34.1654083   8.5411673  49.1224913  33.7834083
   7.9271673  48.1334913  34.5094083   8.5611673  48.4344913  34.1604083
   6.1611673  52.9944913  18.6794083   5.7111673  53.6754913  18.9864083
   6.2751673  52.4904913  19.3824083   6.1121673  53.0204913  18.8284083
   6.2601673  65.3354913  20.7834083   6.9871673  65.8074913  20.8854083
   6.4891673  64.5414913  21.0634083   6.4021673  65.2884913  20.8404083
   4.4281673  65.7274913  22.7734083   4.6421673  66.2544913  23.4354083
   5.1951673  65.5534913  22.3944083   4.5731673  65.7794913  22.8154083
  11.5551673  52.9674913  24.9744083  11.2091673  53.6454913  25.4004083
  10.9191673  52.3694913  24.9904083  11.4101673  52.9794913  25.0394083
   6.8671673  65.7374913  31.0784083   7.6111673  66.1934913  31.0684083
   6.7461673  65.5234913  30.2414083   6.9591673  65.7734913  30.9534083
   3.0841673  49.6834913  35.8224083   3.2621673  48.8744913  35.5474083
   2.9411673  50.1244913  35.0834083   3.0891673  49.6294913  35.6724083
   3.6781673  54.6094913  24.5954083   3.9651673  54.3774913  23.8054083
   4.4101673  54.6884913  25.0644083   3.8281673  54.5864913  24.5484083
   4.4001673  54.9484913  19.7164083   4.6811673  55.7364913  19.9654083
   3.6241673  55.1134913  19.3534083   4.3271673  55.0894913  19.6994083
   8.4411673  66.9224913  21.1834083   9.1061673  66.7744913  20.6384083
   8.8011673  66.8394913  21.9734083   8.5931673  66.8884913  21.2194083
  11.2301673  51.2904913  30.3434083  11.9871673  51.3624913  29.9154083
  11.2931673  50.5174913  30.7424083  11.3511673  51.1874913  30.3384083
   6.1211673  62.9224913  34.7824083   6.0871673  63.3044913  35.5664083
   6.9751673  62.8804913  34.6114083   6.2421673  62.9724913  34.8734083
   3.2591673  63.1194913  19.5324083   3.0781673  63.6644913  20.1894083
   4.0251673  63.4094913  19.2314083   3.3451673  63.2434913  19.5854083
   6.7661673  51.0154913  20.5864083   7.3061673  50.3334913  20.6624083
   6.8281673  51.4134913  21.3604083   6.8551673  50.9734913  20.7124083
   4.0241673  53.3914913  21.9004083   3.5161673  52.7294913  21.6464083
   4.0761673  53.8954913  21.1904083   3.9571673  53.3684913  21.7584083
   4.5731673  66.0864913  32.2804083   5.3411673  66.0064913  31.8744083
   3.9901673  65.9654913  31.6424083   4.6001673  66.0564913  32.1264083
   4.0241673  50.3324913  21.7914083   3.5691673  49.9304913  21.1654083
   4.7971673  50.4874913  21.4164083   4.0711673  50.2964913  21.6434083
  10.8501673  66.6894913  25.1814083  10.3951673  67.4064913  25.3824083
  10.2361673  66.1184913  24.9394083  10.6921673  66.7114913  25.1754083
   2.6221673  52.6994913  26.3134083   2.6961673  53.2674913  25.6554083
   2.7431673  53.1914913  27.0234083   2.6501673  52.8564913  26.3214083
   7.8471673  62.5344913  24.7254083   8.5481673  62.0524913  24.9144083
   7.1871673  61.9654913  24.7704083   7.8531673  62.3794913  24.7594083
   6.4141673  52.8694913  32.2014083   6.3191673  53.1884913  33.0074083
   5.8211673  52.2304913  32.1634083   6.3121673  52.8214913  32.3154083
   7.1131673  59.5884913  30.4064083   6.5991673  59.1764913  30.9774083
   6.9871673  60.4324913  30.5874083   7.0191673  59.6524913  30.5174083
   7.6701673  48.8134913  25.0374083   7.7191673  48.4954913  25.8484083
   7.9931673  48.1694913  24.5444083   7.7251673  48.6714913  25.0844083
  10.1341673  53.0494913  33.3454083  10.9061673  52.8244913  33.6824083
   9.6591673  53.2664913  34.0454083  10.1781673  53.0484913  33.4984083
  10.3661673  60.0274913  20.5334083  10.4851673  59.7404913  21.3484083
  11.1731673  60.0484913  20.2034083  10.5021673  59.9884913  20.6054083
  12.6001673  64.5364913  34.7874083  11.9181673  64.8464913  34.3404083
  12.2311673  64.0784913  35.4324083  12.4441673  64.5144913  34.8164083
   8.2611673  56.5644913  20.1184083   8.0411673  57.2954913  19.6964083
   7.8131673  56.6154913  20.8654083   8.1621673  56.6794913  20.1664083
  12.4481673  51.4254913  19.5714083  11.7861673  50.8574913  19.5944083
  12.2551673  51.9374913  18.8914083  12.3221673  51.4174913  19.4744083
  12.7711673  55.8034913  32.1274083  12.9861673  55.0034913  31.8514083
  11.9211673  55.8634913  31.9384083  12.6771673  55.6944913  32.0584083
  10.4501673  50.9834913  21.8504083  11.1961673  50.5764913  22.0494083
  10.7131673  51.6984913  21.4254083  10.5991673  51.0294913  21.8174083
   4.3931673  63.4694913  26.4264083   3.8701673  64.1034913  26.1334083
   4.7031673  63.1054913  25.6974083   4.3611673  63.5094913  26.2754083
   6.9041673  53.2714913  26.9234083   7.2481673  53.4234913  27.7104083
   6.4511673  52.5334913  27.0364083   6.8881673  53.1844913  27.0564083
  10.4341673  64.9184913  32.8774083   9.7631673  65.4324913  33.0954083
  10.4971673  65.0184913  32.0134083  10.3441673  65.0094913  32.7824083
   8.2251673  54.6034913  29.4774083   7.5631673  54.9314913  29.9404083
   8.4121673  55.2374913  28.9084083   8.1551673  54.7454913  29.4614083
   2.4301673  65.6674913  30.4734083   2.1531673  65.0264913  29.9504083
   2.2221673  66.3934913  30.0354083   2.3591673  65.6804913  30.3314083
   4.8701673  50.5094913  32.9064083   5.0191673  49.6844913  32.6634083
   5.2491673  50.5644913  33.6904083   4.9481673  50.3954913  32.9864083
   6.4181673  52.5724913  22.9884083   6.9081673  53.2894913  22.9114083
   5.6281673  52.8334913  22.7254083   6.3741673  52.7164913  22.9384083
   7.7321673  60.4504913  34.8984083   8.2161673  61.1684913  34.9964083
   8.1261673  60.0234913  34.2474083   7.8621673  60.4934913  34.8164083
   3.0001673  54.0424913  28.7134083   3.4801673  54.7414913  28.9214083
   3.3731673  53.3954913  29.1644083   3.1261673  54.0504913  28.8104083
   5.1891673  57.2114913  20.9874083   5.1811673  57.9334913  20.4974083
   4.5501673  57.3464913  21.5644083   5.0941673  57.3384913  21.0004083
  10.1611673  61.0814913  24.9684083  10.5171673  60.7314913  25.6834083
  10.1531673  60.4204913  24.3984083  10.2131673  60.9314913  24.9894083
   6.2061673  64.1474913  28.8124083   5.6031673  63.8514913  28.2554083
   6.7511673  64.5994913  28.3034083   6.1971673  64.1704913  28.6544083
   6.2191673  60.9984913  28.2124083   5.4221673  61.2224913  28.4864083
   6.4771673  60.4044913  28.7974083   6.1391673  60.9434913  28.3394083
   2.4031673  65.3264913  21.0624083   3.0251673  65.4894913  21.6524083
   2.4391673  66.0174913  20.5304083   2.5001673  65.4524913  21.0714083
   9.4791673  58.9964913  33.0584083   9.5341673  59.1214913  32.1964083
  10.2321673  59.3164913  33.3604083   9.5981673  59.0614913  32.9754083
   5.6701673  64.3454913  37.3354083   5.8341673  64.6284913  38.1444083
   5.9331673  65.0064913  36.8304083   5.7331673  64.4854913  37.3804083
  10.5111673  49.2944913  36.0454083   9.8741673  48.8944913  35.6034083
  10.5371673  48.8634913  36.8034083  10.4211673  49.1724913  36.0914083
   5.2101673  58.8024913  32.6584083   5.0551673  59.4124913  33.2624083
   5.7441673  58.2444913  33.0644083   5.2661673  58.8104913  32.8074083
   3.5941673  57.2024913  23.3164083   3.6531673  57.8524913  23.8954083
   3.4051673  56.5064913  23.8074083   3.5751673  57.1954913  23.4744083
   8.8201673  61.5314913  29.1854083   8.3411673  61.8294913  28.5194083
   8.4641673  60.7554913  29.3634083   8.6971673  61.4604913  29.1134083
   2.8171673  59.2494913  27.7474083   1.9701673  59.0554913  27.8284083
   3.1411673  59.0844913  28.5404083   2.7391673  59.1964913  27.8764083
  12.5121673  65.6974913  21.1254083  13.2061673  65.2304913  20.8774083
  11.9731673  65.0994913  21.4624083  12.5351673  65.5394913  21.1384083
   9.7511673  58.4734913  30.3044083   9.7441673  57.6974913  30.7024083
   8.9101673  58.7074913  30.2974083   9.6261673  58.3934913  30.3624083
  11.0071673  58.5444913  27.7414083  10.7211673  58.9454913  28.4614083
  11.8671673  58.4824913  27.8684083  11.0921673  58.5944913  27.8664083
   8.6691673  52.4684913  36.2814083   8.1441673  52.9274913  36.8054083
   8.3081673  51.6734913  36.2754083   8.5381673  52.4184913  36.3574083
  12.1381673  64.1774913  28.2704083  12.4281673  64.4344913  27.4894083
  12.8331673  64.2734913  28.7894083  12.2841673  64.2294913  28.2314083
   7.1611673  56.0374913  36.3574083   7.2341673  56.1414913  37.2204083
   6.5271673  56.5954913  36.1364083   7.0781673  56.1354913  36.4524083
   9.4291673  56.3564913  34.7224083   9.7481673  57.1424913  34.9254083
   9.0591673  56.0864913  35.4654083   9.4221673  56.4324913  34.8624083
   8.7431673  62.7804913  20.2524083   9.0771673  61.9744913  20.2874083
   7.9881673  62.7084913  20.6824083   8.6811673  62.6504913  20.3214083
   9.2251673  54.6144913  25.9114083   8.4801673  54.2914913  26.2294083
   9.2271673  55.4404913  26.1914083   9.1151673  54.6884913  25.9994083
  12.1271673  56.8984913  37.4574083  12.0751673  56.5574913  36.6564083
  12.8641673  57.3654913  37.4354083  12.2281673  56.9174913  37.3354083
  11.6651673  60.5744913  33.6634083  12.2931673  60.0254913  33.4074083
  11.6041673  61.1394913  33.0014083  11.7491673  60.5774913  33.5274083
   6.1171673  60.6554913  19.6554083   6.8011673  60.1414913  19.4864083
   5.7001673  60.7014913  18.8904083   6.1561673  60.5864913  19.5174083
   8.1371673  50.9444913  33.3724083   8.8811673  51.3964913  33.3094083
   7.5711673  51.4144913  32.9034083   8.1641673  51.0814913  33.2944083
   3.3151673  58.2284913  30.4504083   3.7911673  58.6024913  31.0784083
   2.4921673  58.3624913  30.7094083   3.2641673  58.3034913  30.5814083
   2.5791673  65.6214913  25.6784083   3.1251673  66.3004913  25.7324083
   2.2291673  65.7034913  24.8834083   2.6081673  65.7344913  25.5684083
   9.4221673  48.9244913  31.0424083   9.1421673  49.7494913  30.9984083
  10.1381673  48.9774913  31.5384083   9.4871673  49.0544913  31.1094083
   1.7771673  49.6394913  33.0714083   2.4821673  49.9594913  32.6694083
   2.0181673  48.8324913  33.2984083   1.9161673  49.5674913  33.0454083
   5.0711673  60.4834913  36.0564083   5.8281673  60.7694913  35.7304083
   4.5241673  60.5354913  35.3784083   5.1021673  60.5334913  35.9074083
   8.9801673  63.0334913  34.5604083   9.3261673  63.3034913  35.3144083
   9.2741673  63.6154913  33.9804083   9.0751673  63.1594913  34.5864083
  10.8431673  55.1794913  19.8994083  11.2211673  55.8564913  19.4994083
  10.0011673  55.4034913  19.9304083  10.7741673  55.3124913  19.8444083
   6.3021673  53.7944913  34.7244083   5.6541673  54.2644913  35.0724083
   6.8671673  53.7054913  35.3834083   6.2901673  53.8504913  34.8734083
   5.9901673  55.3314913  31.0224083   6.2921673  55.7514913  31.7254083
   6.0261673  54.4914913  31.2544083   6.0401673  55.2694913  31.1604083
   3.4151673  65.4984913  34.9474083   3.8931673  64.8984913  34.5314083
   3.0641673  65.0554913  35.6124083   3.4341673  65.3444913  34.9844083
   8.5381673  54.7784913  23.2744083   8.7451673  54.5774913  24.0984083
   9.2941673  55.0464913  22.9324083   8.6801673  54.7884913  23.3454083
   9.5601673  50.8614913  24.7484083   8.8461673  50.3904913  24.9194083
   9.3981673  51.2024913  23.9624083   9.4311673  50.8424913  24.6574083
  10.0031673  58.8054913  23.1284083  10.4791673  58.0764913  23.0804083
   9.1821673  58.5194913  23.0524083   9.9521673  58.6554913  23.1094083
   3.4741673  60.7174913  33.9674083   2.6791673  60.6534913  34.3184083
   3.5451673  61.5644913  33.7724083   3.3671673  60.8324913  33.9904083
   6.2191673  59.9724913  25.4834083   6.2951673  60.3134913  26.2824083
   6.3881673  59.1254913  25.6044083   6.2551673  59.8974913  25.6194083
   3.7411673  59.2464913  25.0484083   3.4431673  58.9314913  25.8054083
   4.4361673  59.7194913  25.2834083   3.8001673  59.2694913  25.1954083
   3.9631673  63.3644913  33.0754083   4.6501673  63.2504913  33.6004083
   4.0971673  64.1554913  32.7314083   4.0841673  63.4644913  33.1024083
  12.1391673  55.9734913  34.8864083  11.2841673  55.8514913  35.0124083
  12.2921673  55.5784913  34.1234083  12.0351673  55.8964913  34.7924083
   6.6521673  56.6384913  33.4624083   6.3971673  55.9194913  33.8844083
   7.4731673  56.7544913  33.7324083   6.7361673  56.5494913  33.5644083
   4.5861673  57.8284913  36.6494083   4.9091673  58.5144913  36.2174083
   3.8821673  58.1514913  37.0514083   4.5291673  57.9774913  36.6444083
   7.6701673  66.2024913  27.5784083   7.2191673  66.8454913  27.9574083
   8.3781673  66.1234913  28.0834083   7.7081673  66.2854913  27.7094083
   4.3711673  61.2924913  30.5084083   3.6771673  61.6944913  30.8514083
   5.0481673  61.7254913  30.8474083   4.3681673  61.4154913  30.6094083
   9.7481673  63.8854913  37.0884083  10.5241673  63.4954913  37.1714083
   9.2791673  63.5494913  37.7434083   9.7931673  63.7784913  37.1974083
  10.7731673  55.9184913  22.5704083  10.8761673  55.8604913  21.7064083
  11.5141673  55.5864913  22.8884083  10.8981673  55.8614913  22.4894083
   4.6931673  62.8834913  23.6774083   4.4881673  63.7164913  23.5184083
   3.9181673  62.5014913  23.7994083   4.5481673  62.9504913  23.6724083
   9.8751673  56.0644913  31.9264083   9.8731673  55.2014913  32.0504083
   9.9421673  56.3884913  32.7334083   9.8851673  55.9844913  32.0634083
   5.7541673  50.8644913  35.7084083   5.8461673  51.5764913  36.2024083
   5.1171673  50.4194913  36.1054083   5.6731673  50.9034913  35.8404083
   4.7481673  51.0544913  26.5624083   4.0481673  51.5724913  26.5064083
   4.7861673  50.6744913  25.7784083   4.6501673  51.0754913  26.4384083
   8.3461673  51.5704913  29.3624083   9.2011673  51.6694913  29.5074083
   7.9771673  52.1234913  29.9274083   8.4181673  51.6674913  29.4674083
   8.6501673  56.8504913  27.8534083   9.3161673  57.3914913  28.0134083
   8.3051673  57.1614913  27.1144083   8.6971673  56.9764913  27.7684083
   8.9631673  64.9164913  23.6604083   8.7891673  64.2624913  24.2104083
   9.6761673  64.6454913  23.2374083   9.0431673  64.7794913  23.6794083
  11.8211673  49.4084913  32.5184083  11.7691673  49.3644913  33.3884083
  12.5081673  48.9054913  32.3284083  11.9151673  49.3284913  32.6184083
   3.9061673  51.5214913  29.5634083   3.1691673  51.0674913  29.6764083
   4.4771673  51.1194913  30.0864083   3.8811673  51.3944913  29.6574083
   6.6381673  62.3694913  31.3514083   6.8441673  62.6704913  32.1434083
   6.5771673  63.0914913  30.8664083   6.6591673  62.5204913  31.3964083
   6.1721673  66.5834913  35.5974083   5.4191673  66.5654913  35.1564083
   6.3401673  67.4354913  35.6814083   6.0861673  66.7064913  35.5444083
  11.4501673  61.0084913  30.8094083  11.4181673  60.1464913  30.6744083
  10.7571673  61.3104913  30.3754083  11.3431673  60.9254913  30.7254083
   9.5551673  64.2684913  29.6064083  10.0821673  64.1854913  28.9154083
   9.1641673  63.4904913  29.6604083   9.5751673  64.1414913  29.5124083
   6.0691673  49.7124913  28.8144083   6.7391673  50.2564913  28.9414083
   5.5661673  50.1364913  28.2414083   6.0941673  49.8554913  28.7484083
   5.4281673  55.5204913  26.3074083   5.9791673  54.9134913  26.6074083
   5.0031673  55.7834913  27.0224083   5.4471673  55.4694913  26.4564083
   7.3981673  57.3514913  22.8694083   7.4661673  56.5014913  23.0504083
   6.5751673  57.4374913  22.5914083   7.2861673  57.2384913  22.8554083
  10.4771673  66.3064913  19.2874083  11.1141673  66.1724913  19.8684083
  10.1361673  65.5124913  19.1704083  10.5211673  66.1694913  19.3554083
  10.6721673  58.7244913  36.0204083  11.3061673  58.5544913  36.5944083
  11.0891673  59.1274913  35.3684083  10.8271673  58.7594913  36.0094083
   6.5521673  62.5714913  21.6094083   6.3011673  62.4434913  22.4354083
   6.2351673  61.8764913  21.1884083   6.4681673  62.4504913  21.6694083
  11.2971673  53.2884913  36.7584083  11.1011673  53.9324913  37.3134083
  10.5751673  52.7984913  36.7504083  11.1621673  53.3114913  36.8394083
  11.1961673  54.2294913  29.7294083  10.3631673  54.4794913  29.6574083
  11.1401673  53.3894913  29.9584083  11.0651673  54.1424913  29.7524083
   8.0831673  58.8354913  37.3754083   8.9541673  58.7994913  37.3394083
   7.8641673  59.2554913  36.6434083   8.1801673  58.8914913  37.2624083
   3.4381673  60.7794913  21.0394083   4.1551673  60.4324913  20.6834083
   3.4041673  61.5794913  20.6914083   3.5391673  60.8464913  20.9354083
   4.8471673  49.4204913   5.2781673   4.6021673  49.9084913   4.5981673
   5.7101673  49.3474913   5.1781673   4.9381673  49.4814913   5.1631673
   4.6561673  56.3364913   9.9491673   4.1321673  56.9324913  10.3121673
   5.0531673  55.9684913  10.6331673   4.6371673  56.3704913  10.1041673
  10.8001673  63.7774913   2.9201673  11.5011673  63.2584913   2.9161673
  10.2131673  63.3324913   2.4511673  10.8171673  63.6344913   2.8501673
   7.3271673  57.4034913   6.6251673   7.4071673  57.4074913   5.7561673
   6.7431673  56.7714913   6.7741673   7.2521673  57.3104913   6.5191673
   2.1161673  61.8134913   8.4951673   2.4641673  61.0144913   8.5251673
   2.7811673  62.3174913   8.2401673   2.2661673  61.7694913   8.4621673
   2.1731673  61.2624913   4.7061673   2.5041673  60.6184913   5.1921673
   2.4131673  61.0514913   3.8951673   2.2571673  61.1364913   4.6581673
   4.1411673  55.3934913  16.0451673   3.2931673  55.2944913  15.8671673
   4.1701673  56.1384913  16.4991673   4.0201673  55.4894913  16.0861673
   8.6991673  48.3534913  15.1591673   8.5411673  49.1224913  14.7771673
   7.9271673  48.1334913  15.5031673   8.5611673  48.4344913  15.1541673
   6.2601673  65.3354913   1.7771673   6.9871673  65.8074913   1.8791673
   6.4891673  64.5414913   2.0571673   6.4021673  65.2884913   1.8341673
   4.4281673  65.7274913   3.7671673   4.6421673  66.2544913   4.4291673
   5.1951673  65.5534913   3.3881673   4.5731673  65.7794913   3.8091673
  11.5551673  52.9674913   5.9681673  11.2091673  53.6454913   6.3941673
  10.9191673  52.3694913   5.9841673  11.4101673  52.9794913   6.0331673
   6.8671673  65.7374913  12.0721673   7.6111673  66.1934913  12.0621673
   6.7461673  65.5234913  11.2351673   6.9591673  65.7734913  11.9471673
   3.0841673  49.6834913  16.8161673   3.2621673  48.8744913  16.5411673
   2.9411673  50.1244913  16.0771673   3.0891673  49.6294913  16.6661673
   3.6781673  54.6094913   5.5891673   3.9651673  54.3774913   4.7991673
   4.4101673  54.6884913   6.0581673   3.8281673  54.5864913   5.5421673
   8.4411673  66.9224913   2.1771673   9.1061673  66.7744913   1.6321673
   8.8011673  66.8394913   2.9671673   8.5931673  66.8884913   2.2131673
  11.2301673  51.2904913  11.3371673  11.9871673  51.3624913  10.9091673
  11.2931673  50.5174913  11.7361673  11.3511673  51.1874913  11.3321673
   6.1211673  62.9224913  15.7761673   6.0871673  63.3044913  16.5601673
   6.9751673  62.8804913  15.6051673   6.2421673  62.9724913  15.8671673
   4.0241673  53.3914913   2.8941673   3.5161673  52.7294913   2.6401673
   4.0761673  53.8954913   2.1841673   3.9571673  53.3684913   2.7521673
   4.5731673  66.0864913  13.2741673   5.3411673  66.0064913  12.8681673
   3.9901673  65.9654913  12.6361673   4.6001673  66.0564913  13.1201673
   4.0241673  50.3324913   2.7851673   3.5691673  49.9304913   2.1591673
   4.7971673  50.4874913   2.4101673   4.0711673  50.2964913   2.6371673
  10.8501673  66.6894913   6.1751673  10.3951673  67.4064913   6.3761673
  10.2361673  66.1184913   5.9331673  10.6921673  66.7114913   6.1691673
   2.6221673  52.6994913   7.3071673   2.6961673  53.2674913   6.6491673
   2.7431673  53.1914913   8.0171673   2.6501673  52.8564913   7.3151673
   7.8471673  62.5344913   5.7191673   8.5481673  62.0524913   5.9081673
   7.1871673  61.9654913   5.7641673   7.8531673  62.3794913   5.7531673
   6.4141673  52.8694913  13.1951673   6.3191673  53.1884913  14.0011673
   5.8211673  52.2304913  13.1571673   6.3121673  52.8214913  13.3091673
   7.1131673  59.5884913  11.4001673   6.5991673  59.1764913  11.9711673
   6.9871673  60.4324913  11.5811673   7.0191673  59.6524913  11.5111673
   7.6701673  48.8134913   6.0311673   7.7191673  48.4954913   6.8421673
   7.9931673  48.1694913   5.5381673   7.7251673  48.6714913   6.0781673
  10.1341673  53.0494913  14.3391673  10.9061673  52.8244913  14.6761673
   9.6591673  53.2664913  15.0391673  10.1781673  53.0484913  14.4921673
  12.6001673  64.5364913  15.7811673  11.9181673  64.8464913  15.3341673
  12.2311673  64.0784913  16.4261673  12.4441673  64.5144913  15.8101673
  12.7711673  55.8034913  13.1211673  12.9861673  55.0034913  12.8451673
  11.9211673  55.8634913  12.9321673  12.6771673  55.6944913  13.0521673
  10.4501673  50.9834913   2.8441673  11.1961673  50.5764913   3.0431673
  10.7131673  51.6984913   2.4191673  10.5991673  51.0294913   2.8111673
   4.3931673  63.4694913   7.4201673   3.8701673  64.1034913   7.1271673
   4.7031673  63.1054913   6.6911673   4.3611673  63.5094913   7.2691673
   6.9041673  53.2714913   7.9171673   7.2481673  53.4234913   8.7041673
   6.4511673  52.5334913   8.0301673   6.8881673  53.1844913   8.0501673
  10.4341673  64.9184913  13.8711673   9.7631673  65.4324913  14.0891673
  10.4971673  65.0184913  13.0071673  10.3441673  65.0094913  13.7761673
   8.2251673  54.6034913  10.4711673   7.5631673  54.9314913  10.9341673
   8.4121673  55.2374913   9.9021673   8.1551673  54.7454913  10.4551673
   2.4301673  65.6674913  11.4671673   2.1531673  65.0264913  10.9441673
   2.2221673  66.3934913  11.0291673   2.3591673  65.6804913  11.3251673
   4.8701673  50.5094913  13.9001673   5.0191673  49.6844913  13.6571673
   5.2491673  50.5644913  14.6841673   4.9481673  50.3954913  13.9801673
   6.4181673  52.5724913   3.9821673   6.9081673  53.2894913   3.9051673
   5.6281673  52.8334913   3.7191673   6.3741673  52.7164913   3.9321673
   7.7321673  60.4504913  15.8921673   8.2161673  61.1684913  15.9901673
   8.1261673  60.0234913  15.2411673   7.8621673  60.4934913  15.8101673
   3.0001673  54.0424913   9.7071673   3.4801673  54.7414913   9.9151673
   3.3731673  53.3954913  10.1581673   3.1261673  54.0504913   9.8041673
  10.1611673  61.0814913   5.9621673  10.5171673  60.7314913   6.6771673
  10.1531673  60.4204913   5.3921673  10.2131673  60.9314913   5.9831673
   6.2061673  64.1474913   9.8061673   5.6031673  63.8514913   9.2491673
   6.7511673  64.5994913   9.2971673   6.1971673  64.1704913   9.6481673
   6.2191673  60.9984913   9.2061673   5.4221673  61.2224913   9.4801673
   6.4771673  60.4044913   9.7911673   6.1391673  60.9434913   9.3331673
   9.4791673  58.9964913  14.0521673   9.5341673  59.1214913  13.1901673
  10.2321673  59.3164913  14.3541673   9.5981673  59.0614913  13.9691673
   5.6701673  64.3454913  18.3291673   5.8341673  64.6284913  19.1381673
   5.9331673  65.0064913  17.8241673   5.7331673  64.4854913  18.3741673
  10.5111673  49.2944913  17.0391673   9.8741673  48.8944913  16.5971673
  10.5371673  48.8634913  17.7971673  10.4211673  49.1724913  17.0851673
   5.2101673  58.8024913  13.6521673   5.0551673  59.4124913  14.2561673
   5.7441673  58.2444913  14.0581673   5.2661673  58.8104913  13.8011673
   3.5941673  57.2024913   4.3101673   3.6531673  57.8524913   4.8891673
   3.4051673  56.5064913   4.8011673   3.5751673  57.1954913   4.4681673
   8.8201673  61.5314913  10.1791673   8.3411673  61.8294913   9.5131673
   8.4641673  60.7554913  10.3571673   8.6971673  61.4604913  10.1071673
   2.8171673  59.2494913   8.7411673   1.9701673  59.0554913   8.8221673
   3.1411673  59.0844913   9.5341673   2.7391673  59.1964913   8.8701673
  12.5121673  65.6974913   2.1191673  13.2061673  65.2304913   1.8711673
  11.9731673  65.0994913   2.4561673  12.5351673  65.5394913   2.1321673
   9.7511673  58.4734913  11.2981673   9.7441673  57.6974913  11.6961673
   8.9101673  58.7074913  11.2911673   9.6261673  58.3934913  11.3561673
  11.0071673  58.5444913   8.7351673  10.7211673  58.9454913   9.4551673
  11.8671673  58.4824913   8.8621673  11.0921673  58.5944913   8.8601673
   8.6691673  52.4684913  17.2751673   8.1441673  52.9274913  17.7991673
   8.3081673  51.6734913  17.2691673   8.5381673  52.4184913  17.3511673
  12.1381673  64.1774913   9.2641673  12.4281673  64.4344913   8.4831673
  12.8331673  64.2734913   9.7831673  12.2841673  64.2294913   9.2251673
   7.1611673  56.0374913  17.3511673   7.2341673  56.1414913  18.2141673
   6.5271673  56.5954913  17.1301673   7.0781673  56.1354913  17.4461673
   9.4291673  56.3564913  15.7161673   9.7481673  57.1424913  15.9191673
   9.0591673  56.0864913  16.4591673   9.4221673  56.4324913  15.8561673
   9.2251673  54.6144913   6.9051673   8.4801673  54.2914913   7.2231673
   9.2271673  55.4404913   7.1851673   9.1151673  54.6884913   6.9931673
  12.1271673  56.8984913  18.4511673  12.0751673  56.5574913  17.6501673
  12.8641673  57.3654913  18.4291673  12.2281673  56.9174913  18.3291673
  11.6651673  60.5744913  14.6571673  12.2931673  60.0254913  14.4011673
  11.6041673  61.1394913  13.9951673  11.7491673  60.5774913  14.5211673
   8.1371673  50.9444913  14.3661673   8.8811673  51.3964913  14.3031673
   7.5711673  51.4144913  13.8971673   8.1641673  51.0814913  14.2881673
   3.3151673  58.2284913  11.4441673   3.7911673  58.6024913  12.0721673
   2.4921673  58.3624913  11.7031673   3.2641673  58.3034913  11.5751673
   2.5791673  65.6214913   6.6721673   3.1251673  66.3004913   6.7261673
   2.2291673  65.7034913   5.8771673   2.6081673  65.7344913   6.5621673
   9.4221673  48.9244913  12.0361673   9.1421673  49.7494913  11.9921673
  10.1381673  48.9774913  12.5321673   9.4871673  49.0544913  12.1031673
   1.7771673  49.6394913  14.0651673   2.4821673  49.9594913  13.6631673
   2.0181673  48.8324913  14.2921673   1.9161673  49.5674913  14.0391673
   5.0711673  60.4834913  17.0501673   5.8281673  60.7694913  16.7241673
   4.5241673  60.5354913  16.3721673   5.1021673  60.5334913  16.9011673
   8.9801673  63.0334913  15.5541673   9.3261673  63.3034913  16.3081673
   9.2741673  63.6154913  14.9741673   9.0751673  63.1594913  15.5801673
   6.3021673  53.7944913  15.7181673   5.6541673  54.2644913  16.0661673
   6.8671673  53.7054913  16.3771673   6.2901673  53.8504913  15.8671673
   5.9901673  55.3314913  12.0161673   6.2921673  55.7514913  12.7191673
   6.0261673  54.4914913  12.2481673   6.0401673  55.2694913  12.1541673
   3.4151673  65.4984913  15.9411673   3.8931673  64.8984913  15.5251673
   3.0641673  65.0554913  16.6061673   3.4341673  65.3444913  15.9781673
   8.5381673  54.7784913   4.2681673   8.7451673  54.5774913   5.0921673
   9.2941673  55.0464913   3.9261673   8.6801673  54.7884913   4.3391673
   9.5601673  50.8614913   5.7421673   8.8461673  50.3904913   5.9131673
   9.3981673  51.2024913   4.9561673   9.4311673  50.8424913   5.6511673
  10.0031673  58.8054913   4.1221673  10.4791673  58.0764913   4.0741673
   9.1821673  58.5194913   4.0461673   9.9521673  58.6554913   4.1031673
   3.4741673  60.7174913  14.9611673   2.6791673  60.6534913  15.3121673
   3.5451673  61.5644913  14.7661673   3.3671673  60.8324913  14.9841673
   6.2191673  59.9724913   6.4771673   6.2951673  60.3134913   7.2761673
   6.3881673  59.1254913   6.5981673   6.2551673  59.8974913   6.6131673
   3.7411673  59.2464913   6.0421673   3.4431673  58.9314913   6.7991673
   4.4361673  59.7194913   6.2771673   3.8001673  59.2694913   6.1891673
   3.9631673  63.3644913  14.0691673   4.6501673  63.2504913  14.5941673
   4.0971673  64.1554913  13.7251673   4.0841673  63.4644913  14.0961673
  12.1391673  55.9734913  15.8801673  11.2841673  55.8514913  16.0061673
  12.2921673  55.5784913  15.1171673  12.0351673  55.8964913  15.7861673
   6.6521673  56.6384913  14.4561673   6.3971673  55.9194913  14.8781673
   7.4731673  56.7544913  14.7261673   6.7361673  56.5494913  14.5581673
   4.5861673  57.8284913  17.6431673   4.9091673  58.5144913  17.2111673
   3.8821673  58.1514913  18.0451673   4.5291673  57.9774913  17.6381673
   7.6701673  66.2024913   8.5721673   7.2191673  66.8454913   8.9511673
   8.3781673  66.1234913   9.0771673   7.7081673  66.2854913   8.7031673
   4.3711673  61.2924913  11.5021673   3.6771673  61.6944913  11.8451673
   5.0481673  61.7254913  11.8411673   4.3681673  61.4154913  11.6031673
   9.7481673  63.8854913  18.0821673  10.5241673  63.4954913  18.1651673
   9.2791673  63.5494913  18.7371673   9.7931673  63.7784913  18.1911673
  10.7731673  55.9184913   3.5641673  10.8761673  55.8604913   2.7001673
  11.5141673  55.5864913   3.8821673  10.8981673  55.8614913   3.4831673
   4.6931673  62.8834913   4.6711673   4.4881673  63.7164913   4.5121673
   3.9181673  62.5014913   4.7931673   4.5481673  62.9504913   4.6661673
   9.8751673  56.0644913  12.9201673   9.8731673  55.2014913  13.0441673
   9.9421673  56.3884913  13.7271673   9.8851673  55.9844913  13.0571673
   5.7541673  50.8644913  16.7021673   5.8461673  51.5764913  17.1961673
   5.1171673  50.4194913  17.0991673   5.6731673  50.9034913  16.8341673
   4.7481673  51.0544913   7.5561673   4.0481673  51.5724913   7.5001673
   4.7861673  50.6744913   6.7721673   4.6501673  51.0754913   7.4321673
   8.3461673  51.5704913  10.3561673   9.2011673  51.6694913  10.5011673
   7.9771673  52.1234913  10.9211673   8.4181673  51.6674913  10.4611673
   8.6501673  56.8504913   8.8471673   9.3161673  57.3914913   9.0071673
   8.3051673  57.1614913   8.1081673   8.6971673  56.9764913   8.7621673
   8.9631673  64.9164913   4.6541673   8.7891673  64.2624913   5.2041673
   9.6761673  64.6454913   4.2311673   9.0431673  64.7794913   4.6731673
  11.8211673  49.4084913  13.5121673  11.7691673  49.3644913  14.3821673
  12.5081673  48.9054913  13.3221673  11.9151673  49.3284913  13.6121673
   3.9061673  51.5214913  10.5571673   3.1691673  51.0674913  10.6701673
   4.4771673  51.1194913  11.0801673   3.8811673  51.3944913  10.6511673
   6.6381673  62.3694913  12.3451673   6.8441673  62.6704913  13.1371673
   6.5771673  63.0914913  11.8601673   6.6591673  62.5204913  12.3901673
   6.1721673  66.5834913  16.5911673   5.4191673  66.5654913  16.1501673
   6.3401673  67.4354913  16.6751673   6.0861673  66.7064913  16.5381673
  11.4501673  61.0084913  11.8031673  11.4181673  60.1464913  11.6681673
  10.7571673  61.3104913  11.3691673  11.3431673  60.9254913  11.7191673
   9.5551673  64.2684913  10.6001673  10.0821673  64.1854913   9.9091673
   9.1641673  63.4904913  10.6541673   9.5751673  64.1414913  10.5061673
   6.0691673  49.7124913   9.8081673   6.7391673  50.2564913   9.9351673
   5.5661673  50.1364913   9.2351673   6.0941673  49.8554913   9.7421673
   5.4281673  55.5204913   7.3011673   5.9791673  54.9134913   7.6011673
   5.0031673  55.7834913   8.0161673   5.4471673  55.4694913   7.4501673
   7.3981673  57.3514913   3.8631673   7.4661673  56.5014913   4.0441673
   6.5751673  57.4374913   3.5851673   7.2861673  57.2384913   3.8491673
  10.6721673  58.7244913  17.0141673  11.3061673  58.5544913  17.5881673
  11.0891673  59.1274913  16.3621673  10.8271673  58.7594913  17.0031673
   6.5521673  62.5714913   2.6031673   6.3011673  62.4434913   3.4291673
   6.2351673  61.8764913   2.1821673   6.4681673  62.4504913   2.6631673
  11.2971673  53.2884913  17.7521673  11.1011673  53.9324913  18.3071673
  10.5751673  52.7984913  17.7441673  11.1621673  53.3114913  17.8331673
  11.1961673  54.2294913  10.7231673  10.3631673  54.4794913  10.6511673
  11.1401673  53.3894913  10.9521673  11.0651673  54.1424913  10.7461673
   8.0831673  58.8354913  18.3691673   8.9541673  58.7994913  18.3331673
   7.8641673  59.2554913  17.6371673   8.1801673  58.8914913  18.2561673
   3.4381673  60.7794913   2.0331673   4.1551673  60.4324913   1.6771673
   3.4041673  61.5794913   1.6851673   3.5391673  60.8464913   1.9291673
   4.8471673  30.9423833  81.3031313   4.6021673  31.4303833  80.6231313
   5.7101673  30.8693833  81.2031313   4.9381673  31.0033833  81.1881313
   4.6561673  37.8583833  85.9741313   4.1321673  38.4543833  86.3371313
   5.0531673  37.4903833  86.6581313   4.6371673  37.8923833  86.1291313
  10.8001673  45.2993833  78.9451313  11.5011673  44.7803833  78.9411313
  10.2131673  44.8543833  78.4761313  10.8171673  45.1563833  78.8751313
   7.3271673  38.9253833  82.6501313   7.4071673  38.9293833  81.7811313
   6.7431673  38.2933833  82.7991313   7.2521673  38.8323833  82.5441313
   2.1161673  43.3353833  84.5201313   2.4641673  42.5363833  84.5501313
   2.7811673  43.8393833  84.2651313   2.2661673  43.2913833  84.4871313
   2.1731673  42.7843833  80.7311313   2.5041673  42.1403833  81.2171313
   2.4131673  42.5733833  79.9201313   2.2571673  42.6583833  80.6831313
   4.1411673  36.9153833  92.0701313   3.2931673  36.8163833  91.8921313
   4.1701673  37.6603833  92.5241313   4.0201673  37.0113833  92.1111313
   8.6991673  29.8753833  91.1841313   8.5411673  30.6443833  90.8021313
   7.9271673  29.6553833  91.5281313   8.5611673  29.9563833  91.1791313
   6.1611673  34.5163833  75.6981313   5.7111673  35.1973833  76.0051313
   6.2751673  34.0123833  76.4011313   6.1121673  34.5423833  75.8471313
   6.2601673  46.8573833  77.8021313   6.9871673  47.3293833  77.9041313
   6.4891673  46.0633833  78.0821313   6.4021673  46.8103833  77.8591313
   4.4281673  47.2493833  79.7921313   4.6421673  47.7763833  80.4541313
   5.1951673  47.0753833  79.4131313   4.5731673  47.3013833  79.8341313
  11.5551673  34.4893833  81.9931313  11.2091673  35.1673833  82.4191313
  10.9191673  33.8913833  82.0091313  11.4101673  34.5013833  82.0581313
   6.8671673  47.2593833  88.0971313   7.6111673  47.7153833  88.0871313
   6.7461673  47.0453833  87.2601313   6.9591673  47.2953833  87.9721313
   3.6781673  36.1313833  81.6141313   3.9651673  35.8993833  80.8241313
   4.4101673  36.2103833  82.0831313   3.8281673  36.1083833  81.5671313
   4.4001673  36.4703833  76.7351313   4.6811673  37.2583833  76.9841313
   3.6241673  36.6353833  76.3721313   4.3271673  36.6113833  76.7181313
   8.4411673  48.4443833  78.2021313   9.1061673  48.2963833  77.6571313
   8.8011673  48.3613833  78.9921313   8.5931673  48.4103833  78.2381313
  11.2301673  32.8123833  87.3621313  11.9871673  32.8843833  86.9341313
  11.2931673  32.0393833  87.7611313  11.3511673  32.7093833  87.3571313
   6.1211673  44.4443833  91.8011313   6.0871673  44.8263833  92.5851313
   6.9751673  44.4023833  91.6301313   6.2421673  44.4943833  91.8921313
   3.2591673  44.6413833  76.5511313   3.0781673  45.1863833  77.2081313
   4.0251673  44.9313833  76.2501313   3.3451673  44.7653833  76.6041313
   6.7661673  32.5373833  77.6051313   7.3061673  31.8553833  77.6811313
   6.8281673  32.9353833  78.3791313   6.8551673  32.4953833  77.7311313
   4.0241673  34.9133833  78.9191313   3.5161673  34.2513833  78.6651313
   4.0761673  35.4173833  78.2091313   3.9571673  34.8903833  78.7771313
   4.5731673  47.6083833  89.2991313   5.3411673  47.5283833  88.8931313
   3.9901673  47.4873833  88.6611313   4.6001673  47.5783833  89.1451313
   4.0241673  31.8543833  78.8101313   3.5691673  31.4523833  78.1841313
   4.7971673  32.0093833  78.4351313   4.0711673  31.8183833  78.6621313
  10.8501673  48.2113833  82.2001313  10.3951673  48.9283833  82.4011313
  10.2361673  47.6403833  81.9581313  10.6921673  48.2333833  82.1941313
   2.6221673  34.2213833  83.3321313   2.6961673  34.7893833  82.6741313
   2.7431673  34.7133833  84.0421313   2.6501673  34.3783833  83.3401313
   7.8471673  44.0563833  81.7441313   8.5481673  43.5743833  81.9331313
   7.1871673  43.4873833  81.7891313   7.8531673  43.9013833  81.7781313
   6.4141673  34.3913833  89.2201313   6.3191673  34.7103833  90.0261313
   5.8211673  33.7523833  89.1821313   6.3121673  34.3433833  89.3341313
   7.1131673  41.1103833  87.4251313   6.5991673  40.6983833  87.9961313
   6.9871673  41.9543833  87.6061313   7.0191673  41.1743833  87.5361313
   7.6701673  30.3353833  82.0561313   7.7191673  30.0173833  82.8671313
   7.9931673  29.6913833  81.5631313   7.7251673  30.1933833  82.1031313
  10.1341673  34.5713833  90.3641313  10.9061673  34.3463833  90.7011313
   9.6591673  34.7883833  91.0641313  10.1781673  34.5703833  90.5171313
  10.3661673  41.5493833  77.5521313  10.4851673  41.2623833  78.3671313
  11.1731673  41.5703833  77.2221313  10.5021673  41.5103833  77.6241313
  12.6001673  46.0583833  91.8061313  11.9181673  46.3683833  91.3591313
  12.2311673  45.6003833  92.4511313  12.4441673  46.0363833  91.8351313
   8.2611673  38.0863833  77.1371313   8.0411673  38.8173833  76.7151313
   7.8131673  38.1373833  77.8841313   8.1621673  38.2013833  77.1851313
  12.4481673  32.9473833  76.5901313  11.7861673  32.3793833  76.6131313
  12.2551673  33.4593833  75.9101313  12.3221673  32.9393833  76.4931313
  12.7711673  37.3253833  89.1461313  12.9861673  36.5253833  88.8701313
  11.9211673  37.3853833  88.9571313  12.6771673  37.2163833  89.0771313
  10.4501673  32.5053833  78.8691313  11.1961673  32.0983833  79.0681313
  10.7131673  33.2203833  78.4441313  10.5991673  32.5513833  78.8361313
   4.3931673  44.9913833  83.4451313   3.8701673  45.6253833  83.1521313
   4.7031673  44.6273833  82.7161313   4.3611673  45.0313833  83.2941313
   6.9041673  34.7933833  83.9421313   7.2481673  34.9453833  84.7291313
   6.4511673  34.0553833  84.0551313   6.8881673  34.7063833  84.0751313
  10.4341673  46.4403833  89.8961313   9.7631673  46.9543833  90.1141313
  10.4971673  46.5403833  89.0321313  10.3441673  46.5313833  89.8011313
   8.2251673  36.1253833  86.4961313   7.5631673  36.4533833  86.9591313
   8.4121673  36.7593833  85.9271313   8.1551673  36.2673833  86.4801313
   2.4301673  47.1893833  87.4921313   2.1531673  46.5483833  86.9691313
   2.2221673  47.9153833  87.0541313   2.3591673  47.2023833  87.3501313
   4.8701673  32.0313833  89.9251313   5.0191673  31.2063833  89.6821313
   5.2491673  32.0863833  90.7091313   4.9481673  31.9173833  90.0051313
   6.4181673  34.0943833  80.0071313   6.9081673  34.8113833  79.9301313
   5.6281673  34.3553833  79.7441313   6.3741673  34.2383833  79.9571313
   7.7321673  41.9723833  91.9171313   8.2161673  42.6903833  92.0151313
   8.1261673  41.5453833  91.2661313   7.8621673  42.0153833  91.8351313
   3.0001673  35.5643833  85.7321313   3.4801673  36.2633833  85.9401313
   3.3731673  34.9173833  86.1831313   3.1261673  35.5723833  85.8291313
   5.1891673  38.7333833  78.0061313   5.1811673  39.4553833  77.5161313
   4.5501673  38.8683833  78.5831313   5.0941673  38.8603833  78.0191313
  10.1611673  42.6033833  81.9871313  10.5171673  42.2533833  82.7021313
  10.1531673  41.9423833  81.4171313  10.2131673  42.4533833  82.0081313
   6.2061673  45.6693833  85.8311313   5.6031673  45.3733833  85.2741313
   6.7511673  46.1213833  85.3221313   6.1971673  45.6923833  85.6731313
   6.2191673  42.5203833  85.2311313   5.4221673  42.7443833  85.5051313
   6.4771673  41.9263833  85.8161313   6.1391673  42.4653833  85.3581313
   2.4031673  46.8483833  78.0811313   3.0251673  47.0113833  78.6711313
   2.4391673  47.5393833  77.5491313   2.5001673  46.9743833  78.0901313
   9.4791673  40.5183833  90.0771313   9.5341673  40.6433833  89.2151313
  10.2321673  40.8383833  90.3791313   9.5981673  40.5833833  89.9941313
   5.2101673  40.3243833  89.6771313   5.0551673  40.9343833  90.2811313
   5.7441673  39.7663833  90.0831313   5.2661673  40.3323833  89.8261313
   3.5941673  38.7243833  80.3351313   3.6531673  39.3743833  80.9141313
   3.4051673  38.0283833  80.8261313   3.5751673  38.7173833  80.4931313
   8.8201673  43.0533833  86.2041313   8.3411673  43.3513833  85.5381313
   8.4641673  42.2773833  86.3821313   8.6971673  42.9823833  86.1321313
   2.8171673  40.7713833  84.7661313   1.9701673  40.5773833  84.8471313
   3.1411673  40.6063833  85.5591313   2.7391673  40.7183833  84.8951313
  12.5121673  47.2193833  78.1441313  13.2061673  46.7523833  77.8961313
  11.9731673  46.6213833  78.4811313  12.5351673  47.0613833  78.1571313
   9.7511673  39.9953833  87.3231313   9.7441673  39.2193833  87.7211313
   8.9101673  40.2293833  87.3161313   9.6261673  39.9153833  87.3811313
  11.0071673  40.0663833  84.7601313  10.7211673  40.4673833  85.4801313
  11.8671673  40.0043833  84.8871313  11.0921673  40.1163833  84.8851313
  12.1381673  45.6993833  85.2891313  12.4281673  45.9563833  84.5081313
  12.8331673  45.7953833  85.8081313  12.2841673  45.7513833  85.2501313
   9.4291673  37.8783833  91.7411313   9.7481673  38.6643833  91.9441313
   9.0591673  37.6083833  92.4841313   9.4221673  37.9543833  91.8811313
   8.7431673  44.3023833  77.2711313   9.0771673  43.4963833  77.3061313
   7.9881673  44.2303833  77.7011313   8.6811673  44.1723833  77.3401313
   9.2251673  36.1363833  82.9301313   8.4801673  35.8133833  83.2481313
   9.2271673  36.9623833  83.2101313   9.1151673  36.2103833  83.0181313
  11.6651673  42.0963833  90.6821313  12.2931673  41.5473833  90.4261313
  11.6041673  42.6613833  90.0201313  11.7491673  42.0993833  90.5461313
   6.1171673  42.1773833  76.6741313   6.8011673  41.6633833  76.5051313
   5.7001673  42.2233833  75.9091313   6.1561673  42.1083833  76.5361313
   8.1371673  32.4663833  90.3911313   8.8811673  32.9183833  90.3281313
   7.5711673  32.9363833  89.9221313   8.1641673  32.6033833  90.3131313
   3.3151673  39.7503833  87.4691313   3.7911673  40.1243833  88.0971313
   2.4921673  39.8843833  87.7281313   3.2641673  39.8253833  87.6001313
   2.5791673  47.1433833  82.6971313   3.1251673  47.8223833  82.7511313
   2.2291673  47.2253833  81.9021313   2.6081673  47.2563833  82.5871313
   9.4221673  30.4463833  88.0611313   9.1421673  31.2713833  88.0171313
  10.1381673  30.4993833  88.5571313   9.4871673  30.5763833  88.1281313
   1.7771673  31.1613833  90.0901313   2.4821673  31.4813833  89.6881313
   2.0181673  30.3543833  90.3171313   1.9161673  31.0893833  90.0641313
   8.9801673  44.5553833  91.5791313   9.3261673  44.8253833  92.3331313
   9.2741673  45.1373833  90.9991313   9.0751673  44.6813833  91.6051313
  10.8431673  36.7013833  76.9181313  11.2211673  37.3783833  76.5181313
  10.0011673  36.9253833  76.9491313  10.7741673  36.8343833  76.8631313
   6.3021673  35.3163833  91.7431313   5.6541673  35.7863833  92.0911313
   6.8671673  35.2273833  92.4021313   6.2901673  35.3723833  91.8921313
   5.9901673  36.8533833  88.0411313   6.2921673  37.2733833  88.7441313
   6.0261673  36.0133833  88.2731313   6.0401673  36.7913833  88.1791313
   3.4151673  47.0203833  91.9661313   3.8931673  46.4203833  91.5501313
   3.0641673  46.5773833  92.6311313   3.4341673  46.8663833  92.0031313
   8.5381673  36.3003833  80.2931313   8.7451673  36.0993833  81.1171313
   9.2941673  36.5683833  79.9511313   8.6801673  36.3103833  80.3641313
   9.5601673  32.3833833  81.7671313   8.8461673  31.9123833  81.9381313
   9.3981673  32.7243833  80.9811313   9.4311673  32.3643833  81.6761313
  10.0031673  40.3273833  80.1471313  10.4791673  39.5983833  80.0991313
   9.1821673  40.0413833  80.0711313   9.9521673  40.1773833  80.1281313
   3.4741673  42.2393833  90.9861313   2.6791673  42.1753833  91.3371313
   3.5451673  43.0863833  90.7911313   3.3671673  42.3543833  91.0091313
   6.2191673  41.4943833  82.5021313   6.2951673  41.8353833  83.3011313
   6.3881673  40.6473833  82.6231313   6.2551673  41.4193833  82.6381313
   3.7411673  40.7683833  82.0671313   3.4431673  40.4533833  82.8241313
   4.4361673  41.2413833  82.3021313   3.8001673  40.7913833  82.2141313
   3.9631673  44.8863833  90.0941313   4.6501673  44.7723833  90.6191313
   4.0971673  45.6773833  89.7501313   4.0841673  44.9863833  90.1211313
  12.1391673  37.4953833  91.9051313  11.2841673  37.3733833  92.0311313
  12.2921673  37.1003833  91.1421313  12.0351673  37.4183833  91.8111313
   6.6521673  38.1603833  90.4811313   6.3971673  37.4413833  90.9031313
   7.4731673  38.2763833  90.7511313   6.7361673  38.0713833  90.5831313
   7.6701673  47.7243833  84.5971313   7.2191673  48.3673833  84.9761313
   8.3781673  47.6453833  85.1021313   7.7081673  47.8073833  84.7281313
   4.3711673  42.8143833  87.5271313   3.6771673  43.2163833  87.8701313
   5.0481673  43.2473833  87.8661313   4.3681673  42.9373833  87.6281313
  10.7731673  37.4403833  79.5891313  10.8761673  37.3823833  78.7251313
  11.5141673  37.1083833  79.9071313  10.8981673  37.3833833  79.5081313
   4.6931673  44.4053833  80.6961313   4.4881673  45.2383833  80.5371313
   3.9181673  44.0233833  80.8181313   4.5481673  44.4723833  80.6911313
   9.8751673  37.5863833  88.9451313   9.8731673  36.7233833  89.0691313
   9.9421673  37.9103833  89.7521313   9.8851673  37.5063833  89.0821313
   4.7481673  32.5763833  83.5811313   4.0481673  33.0943833  83.5251313
   4.7861673  32.1963833  82.7971313   4.6501673  32.5973833  83.4571313
   8.3461673  33.0923833  86.3811313   9.2011673  33.1913833  86.5261313
   7.9771673  33.6453833  86.9461313   8.4181673  33.1893833  86.4861313
   8.6501673  38.3723833  84.8721313   9.3161673  38.9133833  85.0321313
   8.3051673  38.6833833  84.1331313   8.6971673  38.4983833  84.7871313
   8.9631673  46.4383833  80.6791313   8.7891673  45.7843833  81.2291313
   9.6761673  46.1673833  80.2561313   9.0431673  46.3013833  80.6981313
  11.8211673  30.9303833  89.5371313  11.7691673  30.8863833  90.4071313
  12.5081673  30.4273833  89.3471313  11.9151673  30.8503833  89.6371313
   3.9061673  33.0433833  86.5821313   3.1691673  32.5893833  86.6951313
   4.4771673  32.6413833  87.1051313   3.8811673  32.9163833  86.6761313
   6.6381673  43.8913833  88.3701313   6.8441673  44.1923833  89.1621313
   6.5771673  44.6133833  87.8851313   6.6591673  44.0423833  88.4151313
  11.4501673  42.5303833  87.8281313  11.4181673  41.6683833  87.6931313
  10.7571673  42.8323833  87.3941313  11.3431673  42.4473833  87.7441313
   9.5551673  45.7903833  86.6251313  10.0821673  45.7073833  85.9341313
   9.1641673  45.0123833  86.6791313   9.5751673  45.6633833  86.5311313
   6.0691673  31.2343833  85.8331313   6.7391673  31.7783833  85.9601313
   5.5661673  31.6583833  85.2601313   6.0941673  31.3773833  85.7671313
   5.4281673  37.0423833  83.3261313   5.9791673  36.4353833  83.6261313
   5.0031673  37.3053833  84.0411313   5.4471673  36.9913833  83.4751313
   7.3981673  38.8733833  79.8881313   7.4661673  38.0233833  80.0691313
   6.5751673  38.9593833  79.6101313   7.2861673  38.7603833  79.8741313
  10.4771673  47.8283833  76.3061313  11.1141673  47.6943833  76.8871313
  10.1361673  47.0343833  76.1891313  10.5211673  47.6913833  76.3741313
   6.5521673  44.0933833  78.6281313   6.3011673  43.9653833  79.4541313
   6.2351673  43.3983833  78.2071313   6.4681673  43.9723833  78.6881313
  11.1961673  35.7513833  86.7481313  10.3631673  36.0013833  86.6761313
  11.1401673  34.9113833  86.9771313  11.0651673  35.6643833  86.7711313
   3.4381673  42.3013833  78.0581313   4.1551673  41.9543833  77.7021313
   3.4041673  43.1013833  77.7101313   3.5391673  42.3683833  77.9541313
   4.8471673  30.9423833  62.2968903   4.6021673  31.4303833  61.6168903
   5.7101673  30.8693833  62.1968903   4.9381673  31.0033833  62.1818903
   4.6561673  37.8583833  66.9678903   4.1321673  38.4543833  67.3308903
   5.0531673  37.4903833  67.6518903   4.6371673  37.8923833  67.1228903
  10.8001673  45.2993833  59.9388903  11.5011673  44.7803833  59.9348903
  10.2131673  44.8543833  59.4698903  10.8171673  45.1563833  59.8688903
   7.3271673  38.9253833  63.6438903   7.4071673  38.9293833  62.7748903
   6.7431673  38.2933833  63.7928903   7.2521673  38.8323833  63.5378903
   2.1161673  43.3353833  65.5138903   2.4641673  42.5363833  65.5438903
   2.7811673  43.8393833  65.2588903   2.2661673  43.2913833  65.4808903
   2.1731673  42.7843833  61.7248903   2.5041673  42.1403833  62.2108903
   2.4131673  42.5733833  60.9138903   2.2571673  42.6583833  61.6768903
   4.1411673  36.9153833  73.0638903   3.2931673  36.8163833  72.8858903
   4.1701673  37.6603833  73.5178903   4.0201673  37.0113833  73.1048903
   8.6991673  29.8753833  72.1778903   8.5411673  30.6443833  71.7958903
   7.9271673  29.6553833  72.5218903   8.5611673  29.9563833  72.1728903
   6.1611673  34.5163833  56.6918903   5.7111673  35.1973833  56.9988903
   6.2751673  34.0123833  57.3948903   6.1121673  34.5423833  56.8408903
   6.2601673  46.8573833  58.7958903   6.9871673  47.3293833  58.8978903
   6.4891673  46.0633833  59.0758903   6.4021673  46.8103833  58.8528903
   4.4281673  47.2493833  60.7858903   4.6421673  47.7763833  61.4478903
   5.1951673  47.0753833  60.4068903   4.5731673  47.3013833  60.8278903
  11.5551673  34.4893833  62.9868903  11.2091673  35.1673833  63.4128903
  10.9191673  33.8913833  63.0028903  11.4101673  34.5013833  63.0518903
   6.8671673  47.2593833  69.0908903   7.6111673  47.7153833  69.0808903
   6.7461673  47.0453833  68.2538903   6.9591673  47.2953833  68.9658903
   3.0841673  31.2053833  73.8348903   3.2621673  30.3963833  73.5598903
   2.9411673  31.6463833  73.0958903   3.0891673  31.1513833  73.6848903
   3.6781673  36.1313833  62.6078903   3.9651673  35.8993833  61.8178903
   4.4101673  36.2103833  63.0768903   3.8281673  36.1083833  62.5608903
   4.4001673  36.4703833  57.7288903   4.6811673  37.2583833  57.9778903
   3.6241673  36.6353833  57.3658903   4.3271673  36.6113833  57.7118903
   8.4411673  48.4443833  59.1958903   9.1061673  48.2963833  58.6508903
   8.8011673  48.3613833  59.9858903   8.5931673  48.4103833  59.2318903
  11.2301673  32.8123833  68.3558903  11.9871673  32.8843833  67.9278903
  11.2931673  32.0393833  68.7548903  11.3511673  32.7093833  68.3508903
   6.1211673  44.4443833  72.7948903   6.0871673  44.8263833  73.5788903
   6.9751673  44.4023833  72.6238903   6.2421673  44.4943833  72.8858903
   3.2591673  44.6413833  57.5448903   3.0781673  45.1863833  58.2018903
   4.0251673  44.9313833  57.2438903   3.3451673  44.7653833  57.5978903
   6.7661673  32.5373833  58.5988903   7.3061673  31.8553833  58.6748903
   6.8281673  32.9353833  59.3728903   6.8551673  32.4953833  58.7248903
   4.0241673  34.9133833  59.9128903   3.5161673  34.2513833  59.6588903
   4.0761673  35.4173833  59.2028903   3.9571673  34.8903833  59.7708903
   4.5731673  47.6083833  70.2928903   5.3411673  47.5283833  69.8868903
   3.9901673  47.4873833  69.6548903   4.6001673  47.5783833  70.1388903
   4.0241673  31.8543833  59.8038903   3.5691673  31.4523833  59.1778903
   4.7971673  32.0093833  59.4288903   4.0711673  31.8183833  59.6558903
  10.8501673  48.2113833  63.1938903  10.3951673  48.9283833  63.3948903
  10.2361673  47.6403833  62.9518903  10.6921673  48.2333833  63.1878903
   2.6221673  34.2213833  64.3258903   2.6961673  34.7893833  63.6678903
   2.7431673  34.7133833  65.0358903   2.6501673  34.3783833  64.3338903
   7.8471673  44.0563833  62.7378903   8.5481673  43.5743833  62.9268903
   7.1871673  43.4873833  62.7828903   7.8531673  43.9013833  62.7718903
   6.4141673  34.3913833  70.2138903   6.3191673  34.7103833  71.0198903
   5.8211673  33.7523833  70.1758903   6.3121673  34.3433833  70.3278903
   7.1131673  41.1103833  68.4188903   6.5991673  40.6983833  68.9898903
   6.9871673  41.9543833  68.5998903   7.0191673  41.1743833  68.5298903
   7.6701673  30.3353833  63.0498903   7.7191673  30.0173833  63.8608903
   7.9931673  29.6913833  62.5568903   7.7251673  30.1933833  63.0968903
  10.1341673  34.5713833  71.3578903  10.9061673  34.3463833  71.6948903
   9.6591673  34.7883833  72.0578903  10.1781673  34.5703833  71.5108903
  10.3661673  41.5493833  58.5458903  10.4851673  41.2623833  59.3608903
  11.1731673  41.5703833  58.2158903  10.5021673  41.5103833  58.6178903
  12.6001673  46.0583833  72.7998903  11.9181673  46.3683833  72.3528903
  12.2311673  45.6003833  73.4448903  12.4441673  46.0363833  72.8288903
   8.2611673  38.0863833  58.1308903   8.0411673  38.8173833  57.7088903
   7.8131673  38.1373833  58.8778903   8.1621673  38.2013833  58.1788903
  12.4481673  32.9473833  57.5838903  11.7861673  32.3793833  57.6068903
  12.2551673  33.4593833  56.9038903  12.3221673  32.9393833  57.4868903
  12.7711673  37.3253833  70.1398903  12.9861673  36.5253833  69.8638903
  11.9211673  37.3853833  69.9508903  12.6771673  37.2163833  70.0708903
  10.4501673  32.5053833  59.8628903  11.1961673  32.0983833  60.0618903
  10.7131673  33.2203833  59.4378903  10.5991673  32.5513833  59.8298903
   4.3931673  44.9913833  64.4388903   3.8701673  45.6253833  64.1458903
   4.7031673  44.6273833  63.7098903   4.3611673  45.0313833  64.2878903
   6.9041673  34.7933833  64.9358903   7.2481673  34.9453833  65.7228903
   6.4511673  34.0553833  65.0488903   6.8881673  34.7063833  65.0688903
  10.4341673  46.4403833  70.8898903   9.7631673  46.9543833  71.1078903
  10.4971673  46.5403833  70.0258903  10.3441673  46.5313833  70.7948903
   8.2251673  36.1253833  67.4898903   7.5631673  36.4533833  67.9528903
   8.4121673  36.7593833  66.9208903   8.1551673  36.2673833  67.4738903
   2.4301673  47.1893833  68.4858903   2.1531673  46.5483833  67.9628903
   2.2221673  47.9153833  68.0478903   2.3591673  47.2023833  68.3438903
   4.8701673  32.0313833  70.9188903   5.0191673  31.2063833  70.6758903
   5.2491673  32.0863833  71.7028903   4.9481673  31.9173833  70.9988903
   6.4181673  34.0943833  61.0008903   6.9081673  34.8113833  60.9238903
   5.6281673  34.3553833  60.7378903   6.3741673  34.2383833  60.9508903
   7.7321673  41.9723833  72.9108903   8.2161673  42.6903833  73.0088903
   8.1261673  41.5453833  72.2598903   7.8621673  42.0153833  72.8288903
   3.0001673  35.5643833  66.7258903   3.4801673  36.2633833  66.9338903
   3.3731673  34.9173833  67.1768903   3.1261673  35.5723833  66.8228903
   5.1891673  38.7333833  58.9998903   5.1811673  39.4553833  58.5098903
   4.5501673  38.8683833  59.5768903   5.0941673  38.8603833  59.0128903
  10.1611673  42.6033833  62.9808903  10.5171673  42.2533833  63.6958903
  10.1531673  41.9423833  62.4108903  10.2131673  42.4533833  63.0018903
   6.2061673  45.6693833  66.8248903   5.6031673  45.3733833  66.2678903
   6.7511673  46.1213833  66.3158903   6.1971673  45.6923833  66.6668903
   6.2191673  42.5203833  66.2248903   5.4221673  42.7443833  66.4988903
   6.4771673  41.9263833  66.8098903   6.1391673  42.4653833  66.3518903
   2.4031673  46.8483833  59.0748903   3.0251673  47.0113833  59.6648903
   2.4391673  47.5393833  58.5428903   2.5001673  46.9743833  59.0838903
   9.4791673  40.5183833  71.0708903   9.5341673  40.6433833  70.2088903
  10.2321673  40.8383833  71.3728903   9.5981673  40.5833833  70.9878903
   5.6701673  45.8673833  75.3478903   5.8341673  46.1503833  76.1568903
   5.9331673  46.5283833  74.8428903   5.7331673  46.0073833  75.3928903
  10.5111673  30.8163833  74.0578903   9.8741673  30.4163833  73.6158903
  10.5371673  30.3853833  74.8158903  10.4211673  30.6943833  74.1038903
   5.2101673  40.3243833  70.6708903   5.0551673  40.9343833  71.2748903
   5.7441673  39.7663833  71.0768903   5.2661673  40.3323833  70.8198903
   3.5941673  38.7243833  61.3288903   3.6531673  39.3743833  61.9078903
   3.4051673  38.0283833  61.8198903   3.5751673  38.7173833  61.4868903
   8.8201673  43.0533833  67.1978903   8.3411673  43.3513833  66.5318903
   8.4641673  42.2773833  67.3758903   8.6971673  42.9823833  67.1258903
   2.8171673  40.7713833  65.7598903   1.9701673  40.5773833  65.8408903
   3.1411673  40.6063833  66.5528903   2.7391673  40.7183833  65.8888903
  12.5121673  47.2193833  59.1378903  13.2061673  46.7523833  58.8898903
  11.9731673  46.6213833  59.4748903  12.5351673  47.0613833  59.1508903
   9.7511673  39.9953833  68.3168903   9.7441673  39.2193833  68.7148903
   8.9101673  40.2293833  68.3098903   9.6261673  39.9153833  68.3748903
  11.0071673  40.0663833  65.7538903  10.7211673  40.4673833  66.4738903
  11.8671673  40.0043833  65.8808903  11.0921673  40.1163833  65.8788903
   8.6691673  33.9903833  74.2938903   8.1441673  34.4493833  74.8178903
   8.3081673  33.1953833  74.2878903   8.5381673  33.9403833  74.3698903
  12.1381673  45.6993833  66.2828903  12.4281673  45.9563833  65.5018903
  12.8331673  45.7953833  66.8018903  12.2841673  45.7513833  66.2438903
   7.1611673  37.5593833  74.3698903   7.2341673  37.6633833  75.2328903
   6.5271673  38.1173833  74.1488903   7.0781673  37.6573833  74.4648903
   9.4291673  37.8783833  72.7348903   9.7481673  38.6643833  72.9378903
   9.0591673  37.6083833  73.4778903   9.4221673  37.9543833  72.8748903
   8.7431673  44.3023833  58.2648903   9.0771673  43.4963833  58.2998903
   7.9881673  44.2303833  58.6948903   8.6811673  44.1723833  58.3338903
   9.2251673  36.1363833  63.9238903   8.4801673  35.8133833  64.2418903
   9.2271673  36.9623833  64.2038903   9.1151673  36.2103833  64.0118903
  12.1271673  38.4203833  75.4698903  12.0751673  38.0793833  74.6688903
  12.8641673  38.8873833  75.4478903  12.2281673  38.4393833  75.3478903
  11.6651673  42.0963833  71.6758903  12.2931673  41.5473833  71.4198903
  11.6041673  42.6613833  71.0138903  11.7491673  42.0993833  71.5398903
   6.1171673  42.1773833  57.6678903   6.8011673  41.6633833  57.4988903
   5.7001673  42.2233833  56.9028903   6.1561673  42.1083833  57.5298903
   8.1371673  32.4663833  71.3848903   8.8811673  32.9183833  71.3218903
   7.5711673  32.9363833  70.9158903   8.1641673  32.6033833  71.3068903
   3.3151673  39.7503833  68.4628903   3.7911673  40.1243833  69.0908903
   2.4921673  39.8843833  68.7218903   3.2641673  39.8253833  68.5938903
   2.5791673  47.1433833  63.6908903   3.1251673  47.8223833  63.7448903
   2.2291673  47.2253833  62.8958903   2.6081673  47.2563833  63.5808903
   9.4221673  30.4463833  69.0548903   9.1421673  31.2713833  69.0108903
  10.1381673  30.4993833  69.5508903   9.4871673  30.5763833  69.1218903
   1.7771673  31.1613833  71.0838903   2.4821673  31.4813833  70.6818903
   2.0181673  30.3543833  71.3108903   1.9161673  31.0893833  71.0578903
   5.0711673  42.0053833  74.0688903   5.8281673  42.2913833  73.7428903
   4.5241673  42.0573833  73.3908903   5.1021673  42.0553833  73.9198903
   8.9801673  44.5553833  72.5728903   9.3261673  44.8253833  73.3268903
   9.2741673  45.1373833  71.9928903   9.0751673  44.6813833  72.5988903
  10.8431673  36.7013833  57.9118903  11.2211673  37.3783833  57.5118903
  10.0011673  36.9253833  57.9428903  10.7741673  36.8343833  57.8568903
   6.3021673  35.3163833  72.7368903   5.6541673  35.7863833  73.0848903
   6.8671673  35.2273833  73.3958903   6.2901673  35.3723833  72.8858903
   5.9901673  36.8533833  69.0348903   6.2921673  37.2733833  69.7378903
   6.0261673  36.0133833  69.2668903   6.0401673  36.7913833  69.1728903
   3.4151673  47.0203833  72.9598903   3.8931673  46.4203833  72.5438903
   3.0641673  46.5773833  73.6248903   3.4341673  46.8663833  72.9968903
   8.5381673  36.3003833  61.2868903   8.7451673  36.0993833  62.1108903
   9.2941673  36.5683833  60.9448903   8.6801673  36.3103833  61.3578903
   9.5601673  32.3833833  62.7608903   8.8461673  31.9123833  62.9318903
   9.3981673  32.7243833  61.9748903   9.4311673  32.3643833  62.6698903
  10.0031673  40.3273833  61.1408903  10.4791673  39.5983833  61.0928903
   9.1821673  40.0413833  61.0648903   9.9521673  40.1773833  61.1218903
   3.4741673  42.2393833  71.9798903   2.6791673  42.1753833  72.3308903
   3.5451673  43.0863833  71.7848903   3.3671673  42.3543833  72.0028903
   6.2191673  41.4943833  63.4958903   6.2951673  41.8353833  64.2948903
   6.3881673  40.6473833  63.6168903   6.2551673  41.4193833  63.6318903
   3.7411673  40.7683833  63.0608903   3.4431673  40.4533833  63.8178903
   4.4361673  41.2413833  63.2958903   3.8001673  40.7913833  63.2078903
   3.9631673  44.8863833  71.0878903   4.6501673  44.7723833  71.6128903
   4.0971673  45.6773833  70.7438903   4.0841673  44.9863833  71.1148903
  12.1391673  37.4953833  72.8988903  11.2841673  37.3733833  73.0248903
  12.2921673  37.1003833  72.1358903  12.0351673  37.4183833  72.8048903
   6.6521673  38.1603833  71.4748903   6.3971673  37.4413833  71.8968903
   7.4731673  38.2763833  71.7448903   6.7361673  38.0713833  71.5768903
   4.5861673  39.3503833  74.6618903   4.9091673  40.0363833  74.2298903
   3.8821673  39.6733833  75.0638903   4.5291673  39.4993833  74.6568903
   7.6701673  47.7243833  65.5908903   7.2191673  48.3673833  65.9698903
   8.3781673  47.6453833  66.0958903   7.7081673  47.8073833  65.7218903
   4.3711673  42.8143833  68.5208903   3.6771673  43.2163833  68.8638903
   5.0481673  43.2473833  68.8598903   4.3681673  42.9373833  68.6218903
   9.7481673  45.4073833  75.1008903  10.5241673  45.0173833  75.1838903
   9.2791673  45.0713833  75.7558903   9.7931673  45.3003833  75.2098903
  10.7731673  37.4403833  60.5828903  10.8761673  37.3823833  59.7188903
  11.5141673  37.1083833  60.9008903  10.8981673  37.3833833  60.5018903
   4.6931673  44.4053833  61.6898903   4.4881673  45.2383833  61.5308903
   3.9181673  44.0233833  61.8118903   4.5481673  44.4723833  61.6848903
   9.8751673  37.5863833  69.9388903   9.8731673  36.7233833  70.0628903
   9.9421673  37.9103833  70.7458903   9.8851673  37.5063833  70.0758903
   5.7541673  32.3863833  73.7208903   5.8461673  33.0983833  74.2148903
   5.1171673  31.9413833  74.1178903   5.6731673  32.4253833  73.8528903
   4.7481673  32.5763833  64.5748903   4.0481673  33.0943833  64.5188903
   4.7861673  32.1963833  63.7908903   4.6501673  32.5973833  64.4508903
   8.3461673  33.0923833  67.3748903   9.2011673  33.1913833  67.5198903
   7.9771673  33.6453833  67.9398903   8.4181673  33.1893833  67.4798903
   8.6501673  38.3723833  65.8658903   9.3161673  38.9133833  66.0258903
   8.3051673  38.6833833  65.1268903   8.6971673  38.4983833  65.7808903
   8.9631673  46.4383833  61.6728903   8.7891673  45.7843833  62.2228903
   9.6761673  46.1673833  61.2498903   9.0431673  46.3013833  61.6918903
  11.8211673  30.9303833  70.5308903  11.7691673  30.8863833  71.4008903
  12.5081673  30.4273833  70.3408903  11.9151673  30.8503833  70.6308903
   3.9061673  33.0433833  67.5758903   3.1691673  32.5893833  67.6888903
   4.4771673  32.6413833  68.0988903   3.8811673  32.9163833  67.6698903
   6.6381673  43.8913833  69.3638903   6.8441673  44.1923833  70.1558903
   6.5771673  44.6133833  68.8788903   6.6591673  44.0423833  69.4088903
   6.1721673  48.1053833  73.6098903   5.4191673  48.0873833  73.1688903
   6.3401673  48.9573833  73.6938903   6.0861673  48.2283833  73.5568903
  11.4501673  42.5303833  68.8218903  11.4181673  41.6683833  68.6868903
  10.7571673  42.8323833  68.3878903  11.3431673  42.4473833  68.7378903
   9.5551673  45.7903833  67.6188903  10.0821673  45.7073833  66.9278903
   9.1641673  45.0123833  67.6728903   9.5751673  45.6633833  67.5248903
   6.0691673  31.2343833  66.8268903   6.7391673  31.7783833  66.9538903
   5.5661673  31.6583833  66.2538903   6.0941673  31.3773833  66.7608903
   5.4281673  37.0423833  64.3198903   5.9791673  36.4353833  64.6198903
   5.0031673  37.3053833  65.0348903   5.4471673  36.9913833  64.4688903
   7.3981673  38.8733833  60.8818903   7.4661673  38.0233833  61.0628903
   6.5751673  38.9593833  60.6038903   7.2861673  38.7603833  60.8678903
  10.4771673  47.8283833  57.2998903  11.1141673  47.6943833  57.8808903
  10.1361673  47.0343833  57.1828903  10.5211673  47.6913833  57.3678903
  10.6721673  40.2463833  74.0328903  11.3061673  40.0763833  74.6068903
  11.0891673  40.6493833  73.3808903  10.8271673  40.2813833  74.0218903
   6.5521673  44.0933833  59.6218903   6.3011673  43.9653833  60.4478903
   6.2351673  43.3983833  59.2008903   6.4681673  43.9723833  59.6818903
  11.2971673  34.8103833  74.7708903  11.1011673  35.4543833  75.3258903
  10.5751673  34.3203833  74.7628903  11.1621673  34.8333833  74.8518903
  11.1961673  35.7513833  67.7418903  10.3631673  36.0013833  67.6698903
  11.1401673  34.9113833  67.9708903  11.0651673  35.6643833  67.7648903
   8.0831673  40.3573833  75.3878903   8.9541673  40.3213833  75.3518903
   7.8641673  40.7773833  74.6558903   8.1801673  40.4133833  75.2748903
   3.4381673  42.3013833  59.0518903   4.1551673  41.9543833  58.6958903
   3.4041673  43.1013833  58.7038903   3.5391673  42.3683833  58.9478903
   4.8471673  30.9423833  43.2906493   4.6021673  31.4303833  42.6106493
   5.7101673  30.8693833  43.1906493   4.9381673  31.0033833  43.1756493
   4.6561673  37.8583833  47.9616493   4.1321673  38.4543833  48.3246493
   5.0531673  37.4903833  48.6456493   4.6371673  37.8923833  48.1166493
  10.8001673  45.2993833  40.9326493  11.5011673  44.7803833  40.9286493
  10.2131673  44.8543833  40.4636493  10.8171673  45.1563833  40.8626493
   7.3271673  38.9253833  44.6376493   7.4071673  38.9293833  43.7686493
   6.7431673  38.2933833  44.7866493   7.2521673  38.8323833  44.5316493
   2.1161673  43.3353833  46.5076493   2.4641673  42.5363833  46.5376493
   2.7811673  43.8393833  46.2526493   2.2661673  43.2913833  46.4746493
   2.1731673  42.7843833  42.7186493   2.5041673  42.1403833  43.2046493
   2.4131673  42.5733833  41.9076493   2.2571673  42.6583833  42.6706493
   4.1411673  36.9153833  54.0576493   3.2931673  36.8163833  53.8796493
   4.1701673  37.6603833  54.5116493   4.0201673  37.0113833  54.0986493
   8.6991673  29.8753833  53.1716493   8.5411673  30.6443833  52.7896493
   7.9271673  29.6553833  53.5156493   8.5611673  29.9563833  53.1666493
   6.1611673  34.5163833  37.6856493   5.7111673  35.1973833  37.9926493
   6.2751673  34.0123833  38.3886493   6.1121673  34.5423833  37.8346493
   6.2601673  46.8573833  39.7896493   6.9871673  47.3293833  39.8916493
   6.4891673  46.0633833  40.0696493   6.4021673  46.8103833  39.8466493
   4.4281673  47.2493833  41.7796493   4.6421673  47.7763833  42.4416493
   5.1951673  47.0753833  41.4006493   4.5731673  47.3013833  41.8216493
  11.5551673  34.4893833  43.9806493  11.2091673  35.1673833  44.4066493
  10.9191673  33.8913833  43.9966493  11.4101673  34.5013833  44.0456493
   6.8671673  47.2593833  50.0846493   7.6111673  47.7153833  50.0746493
   6.7461673  47.0453833  49.2476493   6.9591673  47.2953833  49.9596493
   3.0841673  31.2053833  54.8286493   3.2621673  30.3963833  54.5536493
   2.9411673  31.6463833  54.0896493   3.0891673  31.1513833  54.6786493
   3.6781673  36.1313833  43.6016493   3.9651673  35.8993833  42.8116493
   4.4101673  36.2103833  44.0706493   3.8281673  36.1083833  43.5546493
   4.4001673  36.4703833  38.7226493   4.6811673  37.2583833  38.9716493
   3.6241673  36.6353833  38.3596493   4.3271673  36.6113833  38.7056493
   8.4411673  48.4443833  40.1896493   9.1061673  48.2963833  39.6446493
   8.8011673  48.3613833  40.9796493   8.5931673  48.4103833  40.2256493
  11.2301673  32.8123833  49.3496493  11.9871673  32.8843833  48.9216493
  11.2931673  32.0393833  49.7486493  11.3511673  32.7093833  49.3446493
   6.1211673  44.4443833  53.7886493   6.0871673  44.8263833  54.5726493
   6.9751673  44.4023833  53.6176493   6.2421673  44.4943833  53.8796493
   3.2591673  44.6413833  38.5386493   3.0781673  45.1863833  39.1956493
   4.0251673  44.9313833  38.2376493   3.3451673  44.7653833  38.5916493
   6.7661673  32.5373833  39.5926493   7.3061673  31.8553833  39.6686493
   6.8281673  32.9353833  40.3666493   6.8551673  32.4953833  39.7186493
   4.0241673  34.9133833  40.9066493   3.5161673  34.2513833  40.6526493
   4.0761673  35.4173833  40.1966493   3.9571673  34.8903833  40.7646493
   4.5731673  47.6083833  51.2866493   5.3411673  47.5283833  50.8806493
   3.9901673  47.4873833  50.6486493   4.6001673  47.5783833  51.1326493
   4.0241673  31.8543833  40.7976493   3.5691673  31.4523833  40.1716493
   4.7971673  32.0093833  40.4226493   4.0711673  31.8183833  40.6496493
  10.8501673  48.2113833  44.1876493  10.3951673  48.9283833  44.3886493
  10.2361673  47.6403833  43.9456493  10.6921673  48.2333833  44.1816493
   2.6221673  34.2213833  45.3196493   2.6961673  34.7893833  44.6616493
   2.7431673  34.7133833  46.0296493   2.6501673  34.3783833  45.3276493
   7.8471673  44.0563833  43.7316493   8.5481673  43.5743833  43.9206493
   7.1871673  43.4873833  43.7766493   7.8531673  43.9013833  43.7656493
   6.4141673  34.3913833  51.2076493   6.3191673  34.7103833  52.0136493
   5.8211673  33.7523833  51.1696493   6.3121673  34.3433833  51.3216493
   7.1131673  41.1103833  49.4126493   6.5991673  40.6983833  49.9836493
   6.9871673  41.9543833  49.5936493   7.0191673  41.1743833  49.5236493
   7.6701673  30.3353833  44.0436493   7.7191673  30.0173833  44.8546493
   7.9931673  29.6913833  43.5506493   7.7251673  30.1933833  44.0906493
  10.1341673  34.5713833  52.3516493  10.9061673  34.3463833  52.6886493
   9.6591673  34.7883833  53.0516493  10.1781673  34.5703833  52.5046493
  10.3661673  41.5493833  39.5396493  10.4851673  41.2623833  40.3546493
  11.1731673  41.5703833  39.2096493  10.5021673  41.5103833  39.6116493
  12.6001673  46.0583833  53.7936493  11.9181673  46.3683833  53.3466493
  12.2311673  45.6003833  54.4386493  12.4441673  46.0363833  53.8226493
   8.2611673  38.0863833  39.1246493   8.0411673  38.8173833  38.7026493
   7.8131673  38.1373833  39.8716493   8.1621673  38.2013833  39.1726493
  12.4481673  32.9473833  38.5776493  11.7861673  32.3793833  38.6006493
  12.2551673  33.4593833  37.8976493  12.3221673  32.9393833  38.4806493
  12.7711673  37.3253833  51.1336493  12.9861673  36.5253833  50.8576493
  11.9211673  37.3853833  50.9446493  12.6771673  37.2163833  51.0646493
  10.4501673  32.5053833  40.8566493  11.1961673  32.0983833  41.0556493
  10.7131673  33.2203833  40.4316493  10.5991673  32.5513833  40.8236493
   4.3931673  44.9913833  45.4326493   3.8701673  45.6253833  45.1396493
   4.7031673  44.6273833  44.7036493   4.3611673  45.0313833  45.2816493
   6.9041673  34.7933833  45.9296493   7.2481673  34.9453833  46.7166493
   6.4511673  34.0553833  46.0426493   6.8881673  34.7063833  46.0626493
  10.4341673  46.4403833  51.8836493   9.7631673  46.9543833  52.1016493
  10.4971673  46.5403833  51.0196493  10.3441673  46.5313833  51.7886493
   8.2251673  36.1253833  48.4836493   7.5631673  36.4533833  48.9466493
   8.4121673  36.7593833  47.9146493   8.1551673  36.2673833  48.4676493
   2.4301673  47.1893833  49.4796493   2.1531673  46.5483833  48.9566493
   2.2221673  47.9153833  49.0416493   2.3591673  47.2023833  49.3376493
   4.8701673  32.0313833  51.9126493   5.0191673  31.2063833  51.6696493
   5.2491673  32.0863833  52.6966493   4.9481673  31.9173833  51.9926493
   6.4181673  34.0943833  41.9946493   6.9081673  34.8113833  41.9176493
   5.6281673  34.3553833  41.7316493   6.3741673  34.2383833  41.9446493
   7.7321673  41.9723833  53.9046493   8.2161673  42.6903833  54.0026493
   8.1261673  41.5453833  53.2536493   7.8621673  42.0153833  53.8226493
   3.0001673  35.5643833  47.7196493   3.4801673  36.2633833  47.9276493
   3.3731673  34.9173833  48.1706493   3.1261673  35.5723833  47.8166493
   5.1891673  38.7333833  39.9936493   5.1811673  39.4553833  39.5036493
   4.5501673  38.8683833  40.5706493   5.0941673  38.8603833  40.0066493
  10.1611673  42.6033833  43.9746493  10.5171673  42.2533833  44.6896493
  10.1531673  41.9423833  43.4046493  10.2131673  42.4533833  43.9956493
   6.2061673  45.6693833  47.8186493   5.6031673  45.3733833  47.2616493
   6.7511673  46.1213833  47.3096493   6.1971673  45.6923833  47.6606493
   6.2191673  42.5203833  47.2186493   5.4221673  42.7443833  47.4926493
   6.4771673  41.9263833  47.8036493   6.1391673  42.4653833  47.3456493
   2.4031673  46.8483833  40.0686493   3.0251673  47.0113833  40.6586493
   2.4391673  47.5393833  39.5366493   2.5001673  46.9743833  40.0776493
   9.4791673  40.5183833  52.0646493   9.5341673  40.6433833  51.2026493
  10.2321673  40.8383833  52.3666493   9.5981673  40.5833833  51.9816493
   5.6701673  45.8673833  56.3416493   5.8341673  46.1503833  57.1506493
   5.9331673  46.5283833  55.8366493   5.7331673  46.0073833  56.3866493
  10.5111673  30.8163833  55.0516493   9.8741673  30.4163833  54.6096493
  10.5371673  30.3853833  55.8096493  10.4211673  30.6943833  55.0976493
   5.2101673  40.3243833  51.6646493   5.0551673  40.9343833  52.2686493
   5.7441673  39.7663833  52.0706493   5.2661673  40.3323833  51.8136493
   3.5941673  38.7243833  42.3226493   3.6531673  39.3743833  42.9016493
   3.4051673  38.0283833  42.8136493   3.5751673  38.7173833  42.4806493
   8.8201673  43.0533833  48.1916493   8.3411673  43.3513833  47.5256493
   8.4641673  42.2773833  48.3696493   8.6971673  42.9823833  48.1196493
   2.8171673  40.7713833  46.7536493   1.9701673  40.5773833  46.8346493
   3.1411673  40.6063833  47.5466493   2.7391673  40.7183833  46.8826493
  12.5121673  47.2193833  40.1316493  13.2061673  46.7523833  39.8836493
  11.9731673  46.6213833  40.4686493  12.5351673  47.0613833  40.1446493
   9.7511673  39.9953833  49.3106493   9.7441673  39.2193833  49.7086493
   8.9101673  40.2293833  49.3036493   9.6261673  39.9153833  49.3686493
  11.0071673  40.0663833  46.7476493  10.7211673  40.4673833  47.4676493
  11.8671673  40.0043833  46.8746493  11.0921673  40.1163833  46.8726493
   8.6691673  33.9903833  55.2876493   8.1441673  34.4493833  55.8116493
   8.3081673  33.1953833  55.2816493   8.5381673  33.9403833  55.3636493
  12.1381673  45.6993833  47.2766493  12.4281673  45.9563833  46.4956493
  12.8331673  45.7953833  47.7956493  12.2841673  45.7513833  47.2376493
   7.1611673  37.5593833  55.3636493   7.2341673  37.6633833  56.2266493
   6.5271673  38.1173833  55.1426493   7.0781673  37.6573833  55.4586493
   9.4291673  37.8783833  53.7286493   9.7481673  38.6643833  53.9316493
   9.0591673  37.6083833  54.4716493   9.4221673  37.9543833  53.8686493
   8.7431673  44.3023833  39.2586493   9.0771673  43.4963833  39.2936493
   7.9881673  44.2303833  39.6886493   8.6811673  44.1723833  39.3276493
   9.2251673  36.1363833  44.9176493   8.4801673  35.8133833  45.2356493
   9.2271673  36.9623833  45.1976493   9.1151673  36.2103833  45.0056493
  12.1271673  38.4203833  56.4636493  12.0751673  38.0793833  55.6626493
  12.8641673  38.8873833  56.4416493  12.2281673  38.4393833  56.3416493
  11.6651673  42.0963833  52.6696493  12.2931673  41.5473833  52.4136493
  11.6041673  42.6613833  52.0076493  11.7491673  42.0993833  52.5336493
   6.1171673  42.1773833  38.6616493   6.8011673  41.6633833  38.4926493
   5.7001673  42.2233833  37.8966493   6.1561673  42.1083833  38.5236493
   8.1371673  32.4663833  52.3786493   8.8811673  32.9183833  52.3156493
   7.5711673  32.9363833  51.9096493   8.1641673  32.6033833  52.3006493
   3.3151673  39.7503833  49.4566493   3.7911673  40.1243833  50.0846493
   2.4921673  39.8843833  49.7156493   3.2641673  39.8253833  49.5876493
   2.5791673  47.1433833  44.6846493   3.1251673  47.8223833  44.7386493
   2.2291673  47.2253833  43.8896493   2.6081673  47.2563833  44.5746493
   9.4221673  30.4463833  50.0486493   9.1421673  31.2713833  50.0046493
  10.1381673  30.4993833  50.5446493   9.4871673  30.5763833  50.1156493
   1.7771673  31.1613833  52.0776493   2.4821673  31.4813833  51.6756493
   2.0181673  30.3543833  52.3046493   1.9161673  31.0893833  52.0516493
   5.0711673  42.0053833  55.0626493   5.8281673  42.2913833  54.7366493
   4.5241673  42.0573833  54.3846493   5.1021673  42.0553833  54.9136493
   8.9801673  44.5553833  53.5666493   9.3261673  44.8253833  54.3206493
   9.2741673  45.1373833  52.9866493   9.0751673  44.6813833  53.5926493
  10.8431673  36.7013833  38.9056493  11.2211673  37.3783833  38.5056493
  10.0011673  36.9253833  38.9366493  10.7741673  36.8343833  38.8506493
   6.3021673  35.3163833  53.7306493   5.6541673  35.7863833  54.0786493
   6.8671673  35.2273833  54.3896493   6.2901673  35.3723833  53.8796493
   5.9901673  36.8533833  50.0286493   6.2921673  37.2733833  50.7316493
   6.0261673  36.0133833  50.2606493   6.0401673  36.7913833  50.1666493
   3.4151673  47.0203833  53.9536493   3.8931673  46.4203833  53.5376493
   3.0641673  46.5773833  54.6186493   3.4341673  46.8663833  53.9906493
   8.5381673  36.3003833  42.2806493   8.7451673  36.0993833  43.1046493
   9.2941673  36.5683833  41.9386493   8.6801673  36.3103833  42.3516493
   9.5601673  32.3833833  43.7546493   8.8461673  31.9123833  43.9256493
   9.3981673  32.7243833  42.9686493   9.4311673  32.3643833  43.6636493
  10.0031673  40.3273833  42.1346493  10.4791673  39.5983833  42.0866493
   9.1821673  40.0413833  42.0586493   9.9521673  40.1773833  42.1156493
   3.4741673  42.2393833  52.9736493   2.6791673  42.1753833  53.3246493
   3.5451673  43.0863833  52.7786493   3.3671673  42.3543833  52.9966493
   6.2191673  41.4943833  44.4896493   6.2951673  41.8353833  45.2886493
   6.3881673  40.6473833  44.6106493   6.2551673  41.4193833  44.6256493
   3.7411673  40.7683833  44.0546493   3.4431673  40.4533833  44.8116493
   4.4361673  41.2413833  44.2896493   3.8001673  40.7913833  44.2016493
   3.9631673  44.8863833  52.0816493   4.6501673  44.7723833  52.6066493
   4.0971673  45.6773833  51.7376493   4.0841673  44.9863833  52.1086493
  12.1391673  37.4953833  53.8926493  11.2841673  37.3733833  54.0186493
  12.2921673  37.1003833  53.1296493  12.0351673  37.4183833  53.7986493
   6.6521673  38.1603833  52.4686493   6.3971673  37.4413833  52.8906493
   7.4731673  38.2763833  52.7386493   6.7361673  38.0713833  52.5706493
   4.5861673  39.3503833  55.6556493   4.9091673  40.0363833  55.2236493
   3.8821673  39.6733833  56.0576493   4.5291673  39.4993833  55.6506493
   7.6701673  47.7243833  46.5846493   7.2191673  48.3673833  46.9636493
   8.3781673  47.6453833  47.0896493   7.7081673  47.8073833  46.7156493
   4.3711673  42.8143833  49.5146493   3.6771673  43.2163833  49.8576493
   5.0481673  43.2473833  49.8536493   4.3681673  42.9373833  49.6156493
   9.7481673  45.4073833  56.0946493  10.5241673  45.0173833  56.1776493
   9.2791673  45.0713833  56.7496493   9.7931673  45.3003833  56.2036493
  10.7731673  37.4403833  41.5766493  10.8761673  37.3823833  40.7126493
  11.5141673  37.1083833  41.8946493  10.8981673  37.3833833  41.4956493
   4.6931673  44.4053833  42.6836493   4.4881673  45.2383833  42.5246493
   3.9181673  44.0233833  42.8056493   4.5481673  44.4723833  42.6786493
   9.8751673  37.5863833  50.9326493   9.8731673  36.7233833  51.0566493
   9.9421673  37.9103833  51.7396493   9.8851673  37.5063833  51.0696493
   5.7541673  32.3863833  54.7146493   5.8461673  33.0983833  55.2086493
   5.1171673  31.9413833  55.1116493   5.6731673  32.4253833  54.8466493
   4.7481673  32.5763833  45.5686493   4.0481673  33.0943833  45.5126493
   4.7861673  32.1963833  44.7846493   4.6501673  32.5973833  45.4446493
   8.3461673  33.0923833  48.3686493   9.2011673  33.1913833  48.5136493
   7.9771673  33.6453833  48.9336493   8.4181673  33.1893833  48.4736493
   8.6501673  38.3723833  46.8596493   9.3161673  38.9133833  47.0196493
   8.3051673  38.6833833  46.1206493   8.6971673  38.4983833  46.7746493
   8.9631673  46.4383833  42.6666493   8.7891673  45.7843833  43.2166493
   9.6761673  46.1673833  42.2436493   9.0431673  46.3013833  42.6856493
  11.8211673  30.9303833  51.5246493  11.7691673  30.8863833  52.3946493
  12.5081673  30.4273833  51.3346493  11.9151673  30.8503833  51.6246493
   3.9061673  33.0433833  48.5696493   3.1691673  32.5893833  48.6826493
   4.4771673  32.6413833  49.0926493   3.8811673  32.9163833  48.6636493
   6.6381673  43.8913833  50.3576493   6.8441673  44.1923833  51.1496493
   6.5771673  44.6133833  49.8726493   6.6591673  44.0423833  50.4026493
   6.1721673  48.1053833  54.6036493   5.4191673  48.0873833  54.1626493
   6.3401673  48.9573833  54.6876493   6.0861673  48.2283833  54.5506493
  11.4501673  42.5303833  49.8156493  11.4181673  41.6683833  49.6806493
  10.7571673  42.8323833  49.3816493  11.3431673  42.4473833  49.7316493
   9.5551673  45.7903833  48.6126493  10.0821673  45.7073833  47.9216493
   9.1641673  45.0123833  48.6666493   9.5751673  45.6633833  48.5186493
   6.0691673  31.2343833  47.8206493   6.7391673  31.7783833  47.9476493
   5.5661673  31.6583833  47.2476493   6.0941673  31.3773833  47.7546493
   5.4281673  37.0423833  45.3136493   5.9791673  36.4353833  45.6136493
   5.0031673  37.3053833  46.0286493   5.4471673  36.9913833  45.4626493
   7.3981673  38.8733833  41.8756493   7.4661673  38.0233833  42.0566493
   6.5751673  38.9593833  41.5976493   7.2861673  38.7603833  41.8616493
  10.4771673  47.8283833  38.2936493  11.1141673  47.6943833  38.8746493
  10.1361673  47.0343833  38.1766493  10.5211673  47.6913833  38.3616493
  10.6721673  40.2463833  55.0266493  11.3061673  40.0763833  55.6006493
  11.0891673  40.6493833  54.3746493  10.8271673  40.2813833  55.0156493
   6.5521673  44.0933833  40.6156493   6.3011673  43.9653833  41.4416493
   6.2351673  43.3983833  40.1946493   6.4681673  43.9723833  40.6756493
  11.2971673  34.8103833  55.7646493  11.1011673  35.4543833  56.3196493
  10.5751673  34.3203833  55.7566493  11.1621673  34.8333833  55.8456493
  11.1961673  35.7513833  48.7356493  10.3631673  36.0013833  48.6636493
  11.1401673  34.9113833  48.9646493  11.0651673  35.6643833  48.7586493
   8.0831673  40.3573833  56.3816493   8.9541673  40.3213833  56.3456493
   7.8641673  40.7773833  55.6496493   8.1801673  40.4133833  56.2686493
   3.4381673  42.3013833  40.0456493   4.1551673  41.9543833  39.6896493
   3.4041673  43.1013833  39.6976493   3.5391673  42.3683833  39.9416493
   4.8471673  30.9423833  24.2844083   4.6021673  31.4303833  23.6044083
   5.7101673  30.8693833  24.1844083   4.9381673  31.0033833  24.1694083
   4.6561673  37.8583833  28.9554083   4.1321673  38.4543833  29.3184083
   5.0531673  37.4903833  29.6394083   4.6371673  37.8923833  29.1104083
  10.8001673  45.2993833  21.9264083  11.5011673  44.7803833  21.9224083
  10.2131673  44.8543833  21.4574083  10.8171673  45.1563833  21.8564083
   7.3271673  38.9253833  25.6314083   7.4071673  38.9293833  24.7624083
   6.7431673  38.2933833  25.7804083   7.2521673  38.8323833  25.5254083
   2.1161673  43.3353833  27.5014083   2.4641673  42.5363833  27.5314083
   2.7811673  43.8393833  27.2464083   2.2661673  43.2913833  27.4684083
   2.1731673  42.7843833  23.7124083   2.5041673  42.1403833  24.1984083
   2.4131673  42.5733833  22.9014083   2.2571673  42.6583833  23.6644083
   4.1411673  36.9153833  35.0514083   3.2931673  36.8163833  34.8734083
   4.1701673  37.6603833  35.5054083   4.0201673  37.0113833  35.0924083
   8.6991673  29.8753833  34.1654083   8.5411673  30.6443833  33.7834083
   7.9271673  29.6553833  34.5094083   8.5611673  29.9563833  34.1604083
   6.1611673  34.5163833  18.6794083   5.7111673  35.1973833  18.9864083
   6.2751673  34.0123833  19.3824083   6.1121673  34.5423833  18.8284083
   6.2601673  46.8573833  20.7834083   6.9871673  47.3293833  20.8854083
   6.4891673  46.0633833  21.0634083   6.4021673  46.8103833  20.8404083
   4.4281673  47.2493833  22.7734083   4.6421673  47.7763833  23.4354083
   5.1951673  47.0753833  22.3944083   4.5731673  47.3013833  22.8154083
  11.5551673  34.4893833  24.9744083  11.2091673  35.1673833  25.4004083
  10.9191673  33.8913833  24.9904083  11.4101673  34.5013833  25.0394083
   6.8671673  47.2593833  31.0784083   7.6111673  47.7153833  31.0684083
   6.7461673  47.0453833  30.2414083   6.9591673  47.2953833  30.9534083
   3.0841673  31.2053833  35.8224083   3.2621673  30.3963833  35.5474083
   2.9411673  31.6463833  35.0834083   3.0891673  31.1513833  35.6724083
   3.6781673  36.1313833  24.5954083   3.9651673  35.8993833  23.8054083
   4.4101673  36.2103833  25.0644083   3.8281673  36.1083833  24.5484083
   4.4001673  36.4703833  19.7164083   4.6811673  37.2583833  19.9654083
   3.6241673  36.6353833  19.3534083   4.3271673  36.6113833  19.6994083
   8.4411673  48.4443833  21.1834083   9.1061673  48.2963833  20.6384083
   8.8011673  48.3613833  21.9734083   8.5931673  48.4103833  21.2194083
  11.2301673  32.8123833  30.3434083  11.9871673  32.8843833  29.9154083
  11.2931673  32.0393833  30.7424083  11.3511673  32.7093833  30.3384083
   6.1211673  44.4443833  34.7824083   6.0871673  44.8263833  35.5664083
   6.9751673  44.4023833  34.6114083   6.2421673  44.4943833  34.8734083
   3.2591673  44.6413833  19.5324083   3.0781673  45.1863833  20.1894083
   4.0251673  44.9313833  19.2314083   3.3451673  44.7653833  19.5854083
   6.7661673  32.5373833  20.5864083   7.3061673  31.8553833  20.6624083
   6.8281673  32.9353833  21.3604083   6.8551673  32.4953833  20.7124083
   4.0241673  34.9133833  21.9004083   3.5161673  34.2513833  21.6464083
   4.0761673  35.4173833  21.1904083   3.9571673  34.8903833  21.7584083
   4.5731673  47.6083833  32.2804083   5.3411673  47.5283833  31.8744083
   3.9901673  47.4873833  31.6424083   4.6001673  47.5783833  32.1264083
   4.0241673  31.8543833  21.7914083   3.5691673  31.4523833  21.1654083
   4.7971673  32.0093833  21.4164083   4.0711673  31.8183833  21.6434083
  10.8501673  48.2113833  25.1814083  10.3951673  48.9283833  25.3824083
  10.2361673  47.6403833  24.9394083  10.6921673  48.2333833  25.1754083
   2.6221673  34.2213833  26.3134083   2.6961673  34.7893833  25.6554083
   2.7431673  34.7133833  27.0234083   2.6501673  34.3783833  26.3214083
   7.8471673  44.0563833  24.7254083   8.5481673  43.5743833  24.9144083
   7.1871673  43.4873833  24.7704083   7.8531673  43.9013833  24.7594083
   6.4141673  34.3913833  32.2014083   6.3191673  34.7103833  33.0074083
   5.8211673  33.7523833  32.1634083   6.3121673  34.3433833  32.3154083
   7.1131673  41.1103833  30.4064083   6.5991673  40.6983833  30.9774083
   6.9871673  41.9543833  30.5874083   7.0191673  41.1743833  30.5174083
   7.6701673  30.3353833  25.0374083   7.7191673  30.0173833  25.8484083
   7.9931673  29.6913833  24.5444083   7.7251673  30.1933833  25.0844083
  10.1341673  34.5713833  33.3454083  10.9061673  34.3463833  33.6824083
   9.6591673  34.7883833  34.0454083  10.1781673  34.5703833  33.4984083
  10.3661673  41.5493833  20.5334083  10.4851673  41.2623833  21.3484083
  11.1731673  41.5703833  20.2034083  10.5021673  41.5103833  20.6054083
  12.6001673  46.0583833  34.7874083  11.9181673  46.3683833  34.3404083
  12.2311673  45.6003833  35.4324083  12.4441673  46.0363833  34.8164083
   8.2611673  38.0863833  20.1184083   8.0411673  38.8173833  19.6964083
   7.8131673  38.1373833  20.8654083   8.1621673  38.2013833  20.1664083
  12.4481673  32.9473833  19.5714083  11.7861673  32.3793833  19.5944083
  12.2551673  33.4593833  18.8914083  12.3221673  32.9393833  19.4744083
  12.7711673  37.3253833  32.1274083  12.9861673  36.5253833  31.8514083
  11.9211673  37.3853833  31.9384083  12.6771673  37.2163833  32.0584083
  10.4501673  32.5053833  21.8504083  11.1961673  32.0983833  22.0494083
  10.7131673  33.2203833  21.4254083  10.5991673  32.5513833  21.8174083
   4.3931673  44.9913833  26.4264083   3.8701673  45.6253833  26.1334083
   4.7031673  44.6273833  25.6974083   4.3611673  45.0313833  26.2754083
   6.9041673  34.7933833  26.9234083   7.2481673  34.9453833  27.7104083
   6.4511673  34.0553833  27.0364083   6.8881673  34.7063833  27.0564083
  10.4341673  46.4403833  32.8774083   9.7631673  46.9543833  33.0954083
  10.4971673  46.5403833  32.0134083  10.3441673  46.5313833  32.7824083
   8.2251673  36.1253833  29.4774083   7.5631673  36.4533833  29.9404083
   8.4121673  36.7593833  28.9084083   8.1551673  36.2673833  29.4614083
   2.4301673  47.1893833  30.4734083   2.1531673  46.5483833  29.9504083
   2.2221673  47.9153833  30.0354083   2.3591673  47.2023833  30.3314083
   4.8701673  32.0313833  32.9064083   5.0191673  31.2063833  32.6634083
   5.2491673  32.0863833  33.6904083   4.9481673  31.9173833  32.9864083
   6.4181673  34.0943833  22.9884083   6.9081673  34.8113833  22.9114083
   5.6281673  34.3553833  22.7254083   6.3741673  34.2383833  22.9384083
   7.7321673  41.9723833  34.8984083   8.2161673  42.6903833  34.9964083
   8.1261673  41.5453833  34.2474083   7.8621673  42.0153833  34.8164083
   3.0001673  35.5643833  28.7134083   3.4801673  36.2633833  28.9214083
   3.3731673  34.9173833  29.1644083   3.1261673  35.5723833  28.8104083
   5.1891673  38.7333833  20.9874083   5.1811673  39.4553833  20.4974083
   4.5501673  38.8683833  21.5644083   5.0941673  38.8603833  21.0004083
  10.1611673  42.6033833  24.9684083  10.5171673  42.2533833  25.6834083
  10.1531673  41.9423833  24.3984083  10.2131673  42.4533833  24.9894083
   6.2061673  45.6693833  28.8124083   5.6031673  45.3733833  28.2554083
   6.7511673  46.1213833  28.3034083   6.1971673  45.6923833  28.6544083
   6.2191673  42.5203833  28.2124083   5.4221673  42.7443833  28.4864083
   6.4771673  41.9263833  28.7974083   6.1391673  42.4653833  28.3394083
   2.4031673  46.8483833  21.0624083   3.0251673  47.0113833  21.6524083
   2.4391673  47.5393833  20.5304083   2.5001673  46.9743833  21.0714083
   9.4791673  40.5183833  33.0584083   9.5341673  40.6433833  32.1964083
  10.2321673  40.8383833  33.3604083   9.5981673  40.5833833  32.9754083
   5.6701673  45.8673833  37.3354083   5.8341673  46.1503833  38.1444083
   5.9331673  46.5283833  36.8304083   5.7331673  46.0073833  37.3804083
  10.5111673  30.8163833  36.0454083   9.8741673  30.4163833  35.6034083
  10.5371673  30.3853833  36.8034083  10.4211673  30.6943833  36.0914083
   5.2101673  40.3243833  32.6584083   5.0551673  40.9343833  33.2624083
   5.7441673  39.7663833  33.0644083   5.2661673  40.3323833  32.8074083
   3.5941673  38.7243833  23.3164083   3.6531673  39.3743833  23.8954083
   3.4051673  38.0283833  23.8074083   3.5751673  38.7173833  23.4744083
   8.8201673  43.0533833  29.1854083   8.3411673  43.3513833  28.5194083
   8.4641673  42.2773833  29.3634083   8.6971673  42.9823833  29.1134083
   2.8171673  40.7713833  27.7474083   1.9701673  40.5773833  27.8284083
   3.1411673  40.6063833  28.5404083   2.7391673  40.7183833  27.8764083
  12.5121673  47.2193833  21.1254083  13.2061673  46.7523833  20.8774083
  11.9731673  46.6213833  21.4624083  12.5351673  47.0613833  21.1384083
   9.7511673  39.9953833  30.3044083   9.7441673  39.2193833  30.7024083
   8.9101673  40.2293833  30.2974083   9.6261673  39.9153833  30.3624083
  11.0071673  40.0663833  27.7414083  10.7211673  40.4673833  28.4614083
  11.8671673  40.0043833  27.8684083  11.0921673  40.1163833  27.8664083
   8.6691673  33.9903833  36.2814083   8.1441673  34.4493833  36.8054083
   8.3081673  33.1953833  36.2754083   8.5381673  33.9403833  36.3574083
  12.1381673  45.6993833  28.2704083  12.4281673  45.9563833  27.4894083
  12.8331673  45.7953833  28.7894083  12.2841673  45.7513833  28.2314083
   7.1611673  37.5593833  36.3574083   7.2341673  37.6633833  37.2204083
   6.5271673  38.1173833  36.1364083   7.0781673  37.6573833  36.4524083
   9.4291673  37.8783833  34.7224083   9.7481673  38.6643833  34.9254083
   9.0591673  37.6083833  35.4654083   9.4221673  37.9543833  34.8624083
   8.7431673  44.3023833  20.2524083   9.0771673  43.4963833  20.2874083
   7.9881673  44.2303833  20.6824083   8.6811673  44.1723833  20.3214083
   9.2251673  36.1363833  25.9114083   8.4801673  35.8133833  26.2294083
   9.2271673  36.9623833  26.1914083   9.1151673  36.2103833  25.9994083
  12.1271673  38.4203833  37.4574083  12.0751673  38.0793833  36.6564083
  12.8641673  38.8873833  37.4354083  12.2281673  38.4393833  37.3354083
  11.6651673  42.0963833  33.6634083  12.2931673  41.5473833  33.4074083
  11.6041673  42.6613833  33.0014083  11.7491673  42.0993833  33.5274083
   6.1171673  42.1773833  19.6554083   6.8011673  41.6633833  19.4864083
   5.7001673  42.2233833  18.8904083   6.1561673  42.1083833  19.5174083
   8.1371673  32.4663833  33.3724083   8.8811673  32.9183833  33.3094083
   7.5711673  32.9363833  32.9034083   8.1641673  32.6033833  33.2944083
   3.3151673  39.7503833  30.4504083   3.7911673  40.1243833  31.0784083
   2.4921673  39.8843833  30.7094083   3.2641673  39.8253833  30.5814083
   2.5791673  47.1433833  25.6784083   3.1251673  47.8223833  25.7324083
   2.2291673  47.2253833  24.8834083   2.6081673  47.2563833  25.5684083
   9.4221673  30.4463833  31.0424083   9.1421673  31.2713833  30.9984083
  10.1381673  30.4993833  31.5384083   9.4871673  30.5763833  31.1094083
   1.7771673  31.1613833  33.0714083   2.4821673  31.4813833  32.6694083
   2.0181673  30.3543833  33.2984083   1.9161673  31.0893833  33.0454083
   5.0711673  42.0053833  36.0564083   5.8281673  42.2913833  35.7304083
   4.5241673  42.0573833  35.3784083   5.1021673  42.0553833  35.9074083
   8.9801673  44.5553833  34.5604083   9.3261673  44.8253833  35.3144083
   9.2741673  45.1373833  33.9804083   9.0751673  44.6813833  34.5864083
  10.8431673  36.7013833  19.8994083  11.2211673  37.3783833  19.4994083
  10.0011673  36.9253833  19.9304083  10.7741673  36.8343833  19.8444083
   6.3021673  35.3163833  34.7244083   5.6541673  35.7863833  35.0724083
   6.8671673  35.2273833  35.3834083   6.2901673  35.3723833  34.8734083
   5.9901673  36.8533833  31.0224083   6.2921673  37.2733833  31.7254083
   6.0261673  36.0133833  31.2544083   6.0401673  36.7913833  31.1604083
   3.4151673  47.0203833  34.9474083   3.8931673  46.4203833  34.5314083
   3.0641673  46.5773833  35.6124083   3.4341673  46.8663833  34.9844083
   8.5381673  36.3003833  23.2744083   8.7451673  36.0993833  24.0984083
   9.2941673  36.5683833  22.9324083   8.6801673  36.3103833  23.3454083
   9.5601673  32.3833833  24.7484083   8.8461673  31.9123833  24.9194083
   9.3981673  32.7243833  23.9624083   9.4311673  32.3643833  24.6574083
  10.0031673  40.3273833  23.1284083  10.4791673  39.5983833  23.0804083
   9.1821673  40.0413833  23.0524083   9.9521673  40.1773833  23.1094083
   3.4741673  42.2393833  33.9674083   2.6791673  42.1753833  34.3184083
   3.5451673  43.0863833  33.7724083   3.3671673  42.3543833  33.9904083
   6.2191673  41.4943833  25.4834083   6.2951673  41.8353833  26.2824083
   6.3881673  40.6473833  25.6044083   6.2551673  41.4193833  25.6194083
   3.7411673  40.7683833  25.0484083   3.4431673  40.4533833  25.8054083
   4.4361673  41.2413833  25.2834083   3.8001673  40.7913833  25.1954083
   3.9631673  44.8863833  33.0754083   4.6501673  44.7723833  33.6004083
   4.0971673  45.6773833  32.7314083   4.0841673  44.9863833  33.1024083
  12.1391673  37.4953833  34.8864083  11.2841673  37.3733833  35.0124083
  12.2921673  37.1003833  34.1234083  12.0351673  37.4183833  34.7924083
   6.6521673  38.1603833  33.4624083   6.3971673  37.4413833  33.8844083
   7.4731673  38.2763833  33.7324083   6.7361673  38.0713833  33.5644083
   4.5861673  39.3503833  36.6494083   4.9091673  40.0363833  36.2174083
   3.8821673  39.6733833  37.0514083   4.5291673  39.4993833  36.6444083
   7.6701673  47.7243833  27.5784083   7.2191673  48.3673833  27.9574083
   8.3781673  47.6453833  28.0834083   7.7081673  47.8073833  27.7094083
   4.3711673  42.8143833  30.5084083   3.6771673  43.2163833  30.8514083
   5.0481673  43.2473833  30.8474083   4.3681673  42.9373833  30.6094083
   9.7481673  45.4073833  37.0884083  10.5241673  45.0173833  37.1714083
   9.2791673  45.0713833  37.7434083   9.7931673  45.3003833  37.1974083
  10.7731673  37.4403833  22.5704083  10.8761673  37.3823833  21.7064083
  11.5141673  37.1083833  22.8884083  10.8981673  37.3833833  22.4894083
   4.6931673  44.4053833  23.6774083   4.4881673  45.2383833  23.5184083
   3.9181673  44.0233833  23.7994083   4.5481673  44.4723833  23.6724083
   9.8751673  37.5863833  31.9264083   9.8731673  36.7233833  32.0504083
   9.9421673  37.9103833  32.7334083   9.8851673  37.5063833  32.0634083
   5.7541673  32.3863833  35.7084083   5.8461673  33.0983833  36.2024083
   5.1171673  31.9413833  36.1054083   5.6731673  32.4253833  35.8404083
   4.7481673  32.5763833  26.5624083   4.0481673  33.0943833  26.5064083
   4.7861673  32.1963833  25.7784083   4.6501673  32.5973833  26.4384083
   8.3461673  33.0923833  29.3624083   9.2011673  33.1913833  29.5074083
   7.9771673  33.6453833  29.9274083   8.4181673  33.1893833  29.4674083
   8.6501673  38.3723833  27.8534083   9.3161673  38.9133833  28.0134083
   8.3051673  38.6833833  27.1144083   8.6971673  38.4983833  27.7684083
   8.9631673  46.4383833  23.6604083   8.7891673  45.7843833  24.2104083
   9.6761673  46.1673833  23.2374083   9.0431673  46.3013833  23.6794083
  11.8211673  30.9303833  32.5184083  11.7691673  30.8863833  33.3884083
  12.5081673  30.4273833  32.3284083  11.9151673  30.8503833  32.6184083
   3.9061673  33.0433833  29.5634083   3.1691673  32.5893833  29.6764083
   4.4771673  32.6413833  30.0864083   3.8811673  32.9163833  29.6574083
   6.6381673  43.8913833  31.3514083   6.8441673  44.1923833  32.1434083
   6.5771673  44.6133833  30.8664083   6.6591673  44.0423833  31.3964083
   6.1721673  48.1053833  35.5974083   5.4191673  48.0873833  35.1564083
   6.3401673  48.9573833  35.6814083   6.0861673  48.2283833  35.5444083
  11.4501673  42.5303833  30.8094083  11.4181673  41.6683833  30.6744083
  10.7571673  42.8323833  30.3754083  11.3431673  42.4473833  30.7254083
   9.5551673  45.7903833  29.6064083  10.0821673  45.7073833  28.9154083
   9.1641673  45.0123833  29.6604083   9.5751673  45.6633833  29.5124083
   6.0691673  31.2343833  28.8144083   6.7391673  31.7783833  28.9414083
   5.5661673  31.6583833  28.2414083   6.0941673  31.3773833  28.7484083
   5.4281673  37.0423833  26.3074083   5.9791673  36.4353833  26.6074083
   5.0031673  37.3053833  27.0224083   5.4471673  36.9913833  26.4564083
   7.3981673  38.8733833  22.8694083   7.4661673  38.0233833  23.0504083
   6.5751673  38.9593833  22.5914083   7.2861673  38.7603833  22.8554083
  10.4771673  47.8283833  19.2874083  11.1141673  47.6943833  19.8684083
  10.1361673  47.0343833  19.1704083  10.5211673  47.6913833  19.3554083
  10.6721673  40.2463833  36.0204083  11.3061673  40.0763833  36.5944083
  11.0891673  40.6493833  35.3684083  10.8271673  40.2813833  36.0094083
   6.5521673  44.0933833  21.6094083   6.3011673  43.9653833  22.4354083
   6.2351673  43.3983833  21.1884083   6.4681673  43.9723833  21.6694083
  11.2971673  34.8103833  36.7584083  11.1011673  35.4543833  37.3134083
  10.5751673  34.3203833  36.7504083  11.1621673  34.8333833  36.8394083
  11.1961673  35.7513833  29.7294083  10.3631673  36.0013833  29.6574083
  11.1401673  34.9113833  29.9584083  11.0651673  35.6643833  29.7524083
   8.0831673  40.3573833  37.3754083   8.9541673  40.3213833  37.3394083
   7.8641673  40.7773833  36.6434083   8.1801673  40.4133833  37.2624083
   3.4381673  42.3013833  21.0394083   4.1551673  41.9543833  20.6834083
   3.4041673  43.1013833  20.6914083   3.5391673  42.3683833  20.9354083
   4.8471673  30.9423833   5.2781673   4.6021673  31.4303833   4.5981673
   5.7101673  30.8693833   5.1781673   4.9381673  31.0033833   5.1631673
   4.6561673  37.8583833   9.9491673   4.1321673  38.4543833  10.3121673
   5.0531673  37.4903833  10.6331673   4.6371673  37.8923833  10.1041673
  10.8001673  45.2993833   2.9201673  11.5011673  44.7803833   2.9161673
  10.2131673  44.8543833   2.4511673  10.8171673  45.1563833   2.8501673
   7.3271673  38.9253833   6.6251673   7.4071673  38.9293833   5.7561673
   6.7431673  38.2933833   6.7741673   7.2521673  38.8323833   6.5191673
   2.1161673  43.3353833   8.4951673   2.4641673  42.5363833   8.5251673
   2.7811673  43.8393833   8.2401673   2.2661673  43.2913833   8.4621673
   2.1731673  42.7843833   4.7061673   2.5041673  42.1403833   5.1921673
   2.4131673  42.5733833   3.8951673   2.2571673  42.6583833   4.6581673
   4.1411673  36.9153833  16.0451673   3.2931673  36.8163833  15.8671673
   4.1701673  37.6603833  16.4991673   4.0201673  37.0113833  16.0861673
   8.6991673  29.8753833  15.1591673   8.5411673  30.6443833  14.7771673
   7.9271673  29.6553833  15.5031673   8.5611673  29.9563833  15.1541673
   6.2601673  46.8573833   1.7771673   6.9871673  47.3293833   1.8791673
   6.4891673  46.0633833   2.0571673   6.4021673  46.8103833   1.8341673
   4.4281673  47.2493833   3.7671673   4.6421673  47.7763833   4.4291673
   5.1951673  47.0753833   3.3881673   4.5731673  47.3013833   3.8091673
  11.5551673  34.4893833   5.9681673  11.2091673  35.1673833   6.3941673
  10.9191673  33.8913833   5.9841673  11.4101673  34.5013833   6.0331673
   6.8671673  47.2593833  12.0721673   7.6111673  47.7153833  12.0621673
   6.7461673  47.0453833  11.2351673   6.9591673  47.2953833  11.9471673
   3.0841673  31.2053833  16.8161673   3.2621673  30.3963833  16.5411673
   2.9411673  31.6463833  16.0771673   3.0891673  31.1513833  16.6661673
   3.6781673  36.1313833   5.5891673   3.9651673  35.8993833   4.7991673
   4.4101673  36.2103833   6.0581673   3.8281673  36.1083833   5.5421673
   8.4411673  48.4443833   2.1771673   9.1061673  48.2963833   1.6321673
   8.8011673  48.3613833   2.9671673   8.5931673  48.4103833   2.2131673
  11.2301673  32.8123833  11.3371673  11.9871673  32.8843833  10.9091673
  11.2931673  32.0393833  11.7361673  11.3511673  32.7093833  11.3321673
   6.1211673  44.4443833  15.7761673   6.0871673  44.8263833  16.5601673
   6.9751673  44.4023833  15.6051673   6.2421673  44.4943833  15.8671673
   4.0241673  34.9133833   2.8941673   3.5161673  34.2513833   2.6401673
   4.0761673  35.4173833   2.1841673   3.9571673  34.8903833   2.7521673
   4.5731673  47.6083833  13.2741673   5.3411673  47.5283833  12.8681673
   3.9901673  47.4873833  12.6361673   4.6001673  47.5783833  13.1201673
   4.0241673  31.8543833   2.7851673   3.5691673  31.4523833   2.1591673
   4.7971673  32.0093833   2.4101673   4.0711673  31.8183833   2.6371673
  10.8501673  48.2113833   6.1751673  10.3951673  48.9283833   6.3761673
  10.2361673  47.6403833   5.9331673  10.6921673  48.2333833   6.1691673
   2.6221673  34.2213833   7.3071673   2.6961673  34.7893833   6.6491673
   2.7431673  34.7133833   8.0171673   2.6501673  34.3783833   7.3151673
   7.8471673  44.0563833   5.7191673   8.5481673  43.5743833   5.9081673
   7.1871673  43.4873833   5.7641673   7.8531673  43.9013833   5.7531673
   6.4141673  34.3913833  13.1951673   6.3191673  34.7103833  14.0011673
   5.8211673  33.7523833  13.1571673   6.3121673  34.3433833  13.3091673
   7.1131673  41.1103833  11.4001673   6.5991673  40.6983833  11.9711673
   6.9871673  41.9543833  11.5811673   7.0191673  41.1743833  11.5111673
   7.6701673  30.3353833   6.0311673   7.7191673  30.0173833   6.8421673
   7.9931673  29.6913833   5.5381673   7.7251673  30.1933833   6.0781673
  10.1341673  34.5713833  14.3391673  10.9061673  34.3463833  14.6761673
   9.6591673  34.7883833  15.0391673  10.1781673  34.5703833  14.4921673
  12.6001673  46.0583833  15.7811673  11.9181673  46.3683833  15.3341673
  12.2311673  45.6003833  16.4261673  12.4441673  46.0363833  15.8101673
  12.7711673  37.3253833  13.1211673  12.9861673  36.5253833  12.8451673
  11.9211673  37.3853833  12.9321673  12.6771673  37.2163833  13.0521673
  10.4501673  32.5053833   2.8441673  11.1961673  32.0983833   3.0431673
  10.7131673  33.2203833   2.4191673  10.5991673  32.5513833   2.8111673
   4.3931673  44.9913833   7.4201673   3.8701673  45.6253833   7.1271673
   4.7031673  44.6273833   6.6911673   4.3611673  45.0313833   7.2691673
   6.9041673  34.7933833   7.9171673   7.2481673  34.9453833   8.7041673
   6.4511673  34.0553833   8.0301673   6.8881673  34.7063833   8.0501673
  10.4341673  46.4403833  13.8711673   9.7631673  46.9543833  14.0891673
  10.4971673  46.5403833  13.0071673  10.3441673  46.5313833  13.7761673
   8.2251673  36.1253833  10.4711673   7.5631673  36.4533833  10.9341673
   8.4121673  36.7593833   9.9021673   8.1551673  36.2673833  10.4551673
   2.4301673  47.1893833  11.4671673   2.1531673  46.5483833  10.9441673
   2.2221673  47.9153833  11.0291673   2.3591673  47.2023833  11.3251673
   4.8701673  32.0313833  13.9001673   5.0191673  31.2063833  13.6571673
   5.2491673  32.0863833  14.6841673   4.9481673  31.9173833  13.9801673
   6.4181673  34.0943833   3.9821673   6.9081673  34.8113833   3.9051673
   5.6281673  34.3553833   3.7191673   6.3741673  34.2383833   3.9321673
   7.7321673  41.9723833  15.8921673   8.2161673  42.6903833  15.9901673
   8.1261673  41.5453833  15.2411673   7.8621673  42.0153833  15.8101673
   3.0001673  35.5643833   9.7071673   3.4801673  36.2633833   9.9151673
   3.3731673  34.9173833  10.1581673   3.1261673  35.5723833   9.8041673
  10.1611673  42.6033833   5.9621673  10.5171673  42.2533833   6.6771673
  10.1531673  41.9423833   5.3921673  10.2131673  42.4533833   5.9831673
   6.2061673  45.6693833   9.8061673   5.6031673  45.3733833   9.2491673
   6.7511673  46.1213833   9.2971673   6.1971673  45.6923833   9.6481673
   6.2191673  42.5203833   9.2061673   5.4221673  42.7443833   9.4801673
   6.4771673  41.9263833   9.7911673   6.1391673  42.4653833   9.3331673
   9.4791673  40.5183833  14.0521673   9.5341673  40.6433833  13.1901673
  10.2321673  40.8383833  14.3541673   9.5981673  40.5833833  13.9691673
   5.6701673  45.8673833  18.3291673   5.8341673  46.1503833  19.1381673
   5.9331673  46.5283833  17.8241673   5.7331673  46.0073833  18.3741673
  10.5111673  30.8163833  17.0391673   9.8741673  30.4163833  16.5971673
  10.5371673  30.3853833  17.7971673  10.4211673  30.6943833  17.0851673
   5.2101673  40.3243833  13.6521673   5.0551673  40.9343833  14.2561673
   5.7441673  39.7663833  14.0581673   5.2661673  40.3323833  13.8011673
   3.5941673  38.7243833   4.3101673   3.6531673  39.3743833   4.8891673
   3.4051673  38.0283833   4.8011673   3.5751673  38.7173833   4.4681673
   8.8201673  43.0533833  10.1791673   8.3411673  43.3513833   9.5131673
   8.4641673  42.2773833  10.3571673   8.6971673  42.9823833  10.1071673
   2.8171673  40.7713833   8.7411673   1.9701673  40.5773833   8.8221673
   3.1411673  40.6063833   9.5341673   2.7391673  40.7183833   8.8701673
  12.5121673  47.2193833   2.1191673  13.2061673  46.7523833   1.8711673
  11.9731673  46.6213833   2.4561673  12.5351673  47.0613833   2.1321673
   9.7511673  39.9953833  11.2981673   9.7441673  39.2193833  11.6961673
   8.9101673  40.2293833  11.2911673   9.6261673  39.9153833  11.3561673
  11.0071673  40.0663833   8.7351673  10.7211673  40.4673833   9.4551673
  11.8671673  40.0043833   8.8621673  11.0921673  40.1163833   8.8601673
   8.6691673  33.9903833  17.2751673   8.1441673  34.4493833  17.7991673
   8.3081673  33.1953833  17.2691673   8.5381673  33.9403833  17.3511673
  12.1381673  45.6993833   9.2641673  12.4281673  45.9563833   8.4831673
  12.8331673  45.7953833   9.7831673  12.2841673  45.7513833   9.2251673
   7.1611673  37.5593833  17.3511673   7.2341673  37.6633833  18.2141673
   6.5271673  38.1173833  17.1301673   7.0781673  37.6573833  17.4461673
   9.4291673  37.8783833  15.7161673   9.7481673  38.6643833  15.9191673
   9.0591673  37.6083833  16.4591673   9.4221673  37.9543833  15.8561673
   9.2251673  36.1363833   6.9051673   8.4801673  35.8133833   7.2231673
   9.2271673  36.9623833   7.1851673   9.1151673  36.2103833   6.9931673
  12.1271673  38.4203833  18.4511673  12.0751673  38.0793833  17.6501673
  12.8641673  38.8873833  18.4291673  12.2281673  38.4393833  18.3291673
  11.6651673  42.0963833  14.6571673  12.2931673  41.5473833  14.4011673
  11.6041673  42.6613833  13.9951673  11.7491673  42.0993833  14.5211673
   8.1371673  32.4663833  14.3661673   8.8811673  32.9183833  14.3031673
   7.5711673  32.9363833  13.8971673   8.1641673  32.6033833  14.2881673
   3.3151673  39.7503833  11.4441673   3.7911673  40.1243833  12.0721673
   2.4921673  39.8843833  11.7031673   3.2641673  39.8253833  11.5751673
   2.5791673  47.1433833   6.6721673   3.1251673  47.8223833   6.7261673
   2.2291673  47.2253833   5.8771673   2.6081673  47.2563833   6.5621673
   9.4221673  30.4463833  12.0361673   9.1421673  31.2713833  11.9921673
  10.1381673  30.4993833  12.5321673   9.4871673  30.5763833  12.1031673
   1.7771673  31.1613833  14.0651673   2.4821673  31.4813833  13.6631673
   2.0181673  30.3543833  14.2921673   1.9161673  31.0893833  14.0391673
   5.0711673  42.0053833  17.0501673   5.8281673  42.2913833  16.7241673
   4.5241673  42.0573833  16.3721673   5.1021673  42.0553833  16.9011673
   8.9801673  44.5553833  15.5541673   9.3261673  44.8253833  16.3081673
   9.2741673  45.1373833  14.9741673   9.0751673  44.6813833  15.5801673
   6.3021673  35.3163833  15.7181673   5.6541673  35.7863833  16.0661673
   6.8671673  35.2273833  16.3771673   6.2901673  35.3723833  15.8671673
   5.9901673  36.8533833  12.0161673   6.2921673  37.2733833  12.7191673
   6.0261673  36.0133833  12.2481673   6.0401673  36.7913833  12.1541673
   3.4151673  47.0203833  15.9411673   3.8931673  46.4203833  15.5251673
   3.0641673  46.5773833  16.6061673   3.4341673  46.8663833  15.9781673
   8.5381673  36.3003833   4.2681673   8.7451673  36.0993833   5.0921673
   9.2941673  36.5683833   3.9261673   8.6801673  36.3103833   4.3391673
   9.5601673  32.3833833   5.7421673   8.8461673  31.9123833   5.9131673
   9.3981673  32.7243833   4.9561673   9.4311673  32.3643833   5.6511673
  10.0031673  40.3273833   4.1221673  10.4791673  39.5983833   4.0741673
   9.1821673  40.0413833   4.0461673   9.9521673  40.1773833   4.1031673
   3.4741673  42.2393833  14.9611673   2.6791673  42.1753833  15.3121673
   3.5451673  43.0863833  14.7661673   3.3671673  42.3543833  14.9841673
   6.2191673  41.4943833   6.4771673   6.2951673  41.8353833   7.2761673
   6.3881673  40.6473833   6.5981673   6.2551673  41.4193833   6.6131673
   3.7411673  40.7683833   6.0421673   3.4431673  40.4533833   6.7991673
   4.4361673  41.2413833   6.2771673   3.8001673  40.7913833   6.1891673
   3.9631673  44.8863833  14.0691673   4.6501673  44.7723833  14.5941673
   4.0971673  45.6773833  13.7251673   4.0841673  44.9863833  14.0961673
  12.1391673  37.4953833  15.8801673  11.2841673  37.3733833  16.0061673
  12.2921673  37.1003833  15.1171673  12.0351673  37.4183833  15.7861673
   6.6521673  38.1603833  14.4561673   6.3971673  37.4413833  14.8781673
   7.4731673  38.2763833  14.7261673   6.7361673  38.0713833  14.5581673
   4.5861673  39.3503833  17.6431673   4.9091673  40.0363833  17.2111673
   3.8821673  39.6733833  18.0451673   4.5291673  39.4993833  17.6381673
   7.6701673  47.7243833   8.5721673   7.2191673  48.3673833   8.9511673
   8.3781673  47.6453833   9.0771673   7.7081673  47.8073833   8.7031673
   4.3711673  42.8143833  11.5021673   3.6771673  43.2163833  11.8451673
   5.0481673  43.2473833  11.8411673   4.3681673  42.9373833  11.6031673
   9.7481673  45.4073833  18.0821673  10.5241673  45.0173833  18.1651673
   9.2791673  45.0713833  18.7371673   9.7931673  45.3003833  18.1911673
  10.7731673  37.4403833   3.5641673  10.8761673  37.3823833   2.7001673
  11.5141673  37.1083833   3.8821673  10.8981673  37.3833833   3.4831673
   4.6931673  44.4053833   4.6711673   4.4881673  45.2383833   4.5121673
   3.9181673  44.0233833   4.7931673   4.5481673  44.4723833   4.6661673
   9.8751673  37.5863833  12.9201673   9.8731673  36.7233833  13.0441673
   9.9421673  37.9103833  13.7271673   9.8851673  37.5063833  13.0571673
   5.7541673  32.3863833  16.7021673   5.8461673  33.0983833  17.1961673
   5.1171673  31.9413833  17.0991673   5.6731673  32.4253833  16.8341673
   4.7481673  32.5763833   7.5561673   4.0481673  33.0943833   7.5001673
   4.7861673  32.1963833   6.7721673   4.6501673  32.5973833   7.4321673
   8.3461673  33.0923833  10.3561673   9.2011673  33.1913833  10.5011673
   7.9771673  33.6453833  10.9211673   8.4181673  33.1893833  10.4611673
   8.6501673  38.3723833   8.8471673   9.3161673  38.9133833   9.0071673
   8.3051673  38.6833833   8.1081673   8.6971673  38.4983833   8.7621673
   8.9631673  46.4383833   4.6541673   8.7891673  45.7843833   5.2041673
   9.6761673  46.1673833   4.2311673   9.0431673  46.3013833   4.6731673
  11.8211673  30.9303833  13.5121673  11.7691673  30.8863833  14.3821673
  12.5081673  30.4273833  13.3221673  11.9151673  30.8503833  13.6121673
   3.9061673  33.0433833  10.5571673   3.1691673  32.5893833  10.6701673
   4.4771673  32.6413833  11.0801673   3.8811673  32.9163833  10.6511673
   6.6381673  43.8913833  12.3451673   6.8441673  44.1923833  13.1371673
   6.5771673  44.6133833  11.8601673   6.6591673  44.0423833  12.3901673
   6.1721673  48.1053833  16.5911673   5.4191673  48.0873833  16.1501673
   6.3401673  48.9573833  16.6751673   6.0861673  48.2283833  16.5381673
  11.4501673  42.5303833  11.8031673  11.4181673  41.6683833  11.6681673
  10.7571673  42.8323833  11.3691673  11.3431673  42.4473833  11.7191673
   9.5551673  45.7903833  10.6001673  10.0821673  45.7073833   9.9091673
   9.1641673  45.0123833  10.6541673   9.5751673  45.6633833  10.5061673
   6.0691673  31.2343833   9.8081673   6.7391673  31.7783833   9.9351673
   5.5661673  31.6583833   9.2351673   6.0941673  31.3773833   9.7421673
   5.4281673  37.0423833   7.3011673   5.9791673  36.4353833   7.6011673
   5.0031673  37.3053833   8.0161673   5.4471673  36.9913833   7.4501673
   7.3981673  38.8733833   3.8631673   7.4661673  38.0233833   4.0441673
   6.5751673  38.9593833   3.5851673   7.2861673  38.7603833   3.8491673
  10.6721673  40.2463833  17.0141673  11.3061673  40.0763833  17.5881673
  11.0891673  40.6493833  16.3621673  10.8271673  40.2813833  17.0031673
   6.5521673  44.0933833   2.6031673   6.3011673  43.9653833   3.4291673
   6.2351673  43.3983833   2.1821673   6.4681673  43.9723833   2.6631673
  11.2971673  34.8103833  17.7521673  11.1011673  35.4543833  18.3071673
  10.5751673  34.3203833  17.7441673  11.1621673  34.8333833  17.8331673
  11.1961673  35.7513833  10.7231673  10.3631673  36.0013833  10.6511673
  11.1401673  34.9113833  10.9521673  11.0651673  35.6643833  10.7461673
   8.0831673  40.3573833  18.3691673   8.9541673  40.3213833  18.3331673
   7.8641673  40.7773833  17.6371673   8.1801673  40.4133833  18.2561673
   3.4381673  42.3013833   2.0331673   4.1551673  41.9543833   1.6771673
   3.4041673  43.1013833   1.6851673   3.5391673  42.3683833   1.9291673
   4.8471673  12.4642753  81.3031313   4.6021673  12.9522753  80.6231313
   5.7101673  12.3912753  81.2031313   4.9381673  12.5252753  81.1881313
   4.6561673  19.3802753  85.9741313   4.1321673  19.9762753  86.3371313
   5.0531673  19.0122753  86.6581313   4.6371673  19.4142753  86.1291313
  10.8001673  26.8212753  78.9451313  11.5011673  26.3022753  78.9411313
  10.2131673  26.3762753  78.4761313  10.8171673  26.6782753  78.8751313
   7.3271673  20.4472753  82.6501313   7.4071673  20.4512753  81.7811313
   6.7431673  19.8152753  82.7991313   7.2521673  20.3542753  82.5441313
   2.1161673  24.8572753  84.5201313   2.4641673  24.0582753  84.5501313
   2.7811673  25.3612753  84.2651313   2.2661673  24.8132753  84.4871313
   2.1731673  24.3062753  80.7311313   2.5041673  23.6622753  81.2171313
   2.4131673  24.0952753  79.9201313   2.2571673  24.1802753  80.6831313
   4.1411673  18.4372753  92.0701313   3.2931673  18.3382753  91.8921313
   4.1701673  19.1822753  92.5241313   4.0201673  18.5332753  92.1111313
   8.6991673  11.3972753  91.1841313   8.5411673  12.1662753  90.8021313
   7.9271673  11.1772753  91.5281313   8.5611673  11.4782753  91.1791313
   6.1611673  16.0382753  75.6981313   5.7111673  16.7192753  76.0051313
   6.2751673  15.5342753  76.4011313   6.1121673  16.0642753  75.8471313
   6.2601673  28.3792753  77.8021313   6.9871673  28.8512753  77.9041313
   6.4891673  27.5852753  78.0821313   6.4021673  28.3322753  77.8591313
   4.4281673  28.7712753  79.7921313   4.6421673  29.2982753  80.4541313
   5.1951673  28.5972753  79.4131313   4.5731673  28.8232753  79.8341313
  11.5551673  16.0112753  81.9931313  11.2091673  16.6892753  82.4191313
  10.9191673  15.4132753  82.0091313  11.4101673  16.0232753  82.0581313
   6.8671673  28.7812753  88.0971313   7.6111673  29.2372753  88.0871313
   6.7461673  28.5672753  87.2601313   6.9591673  28.8172753  87.9721313
   3.6781673  17.6532753  81.6141313   3.9651673  17.4212753  80.8241313
   4.4101673  17.7322753  82.0831313   3.8281673  17.6302753  81.5671313
   4.4001673  17.9922753  76.7351313   4.6811673  18.7802753  76.9841313
   3.6241673  18.1572753  76.3721313   4.3271673  18.1332753  76.7181313
   8.4411673  29.9662753  78.2021313   9.1061673  29.8182753  77.6571313
   8.8011673  29.8832753  78.9921313   8.5931673  29.9322753  78.2381313
  11.2301673  14.3342753  87.3621313  11.9871673  14.4062753  86.9341313
  11.2931673  13.5612753  87.7611313  11.3511673  14.2312753  87.3571313
   6.1211673  25.9662753  91.8011313   6.0871673  26.3482753  92.5851313
   6.9751673  25.9242753  91.6301313   6.2421673  26.0162753  91.8921313
   3.2591673  26.1632753  76.5511313   3.0781673  26.7082753  77.2081313
   4.0251673  26.4532753  76.2501313   3.3451673  26.2872753  76.6041313
   6.7661673  14.0592753  77.6051313   7.3061673  13.3772753  77.6811313
   6.8281673  14.4572753  78.3791313   6.8551673  14.0172753  77.7311313
   4.0241673  16.4352753  78.9191313   3.5161673  15.7732753  78.6651313
   4.0761673  16.9392753  78.2091313   3.9571673  16.4122753  78.7771313
   4.5731673  29.1302753  89.2991313   5.3411673  29.0502753  88.8931313
   3.9901673  29.0092753  88.6611313   4.6001673  29.1002753  89.1451313
   4.0241673  13.3762753  78.8101313   3.5691673  12.9742753  78.1841313
   4.7971673  13.5312753  78.4351313   4.0711673  13.3402753  78.6621313
  10.8501673  29.7332753  82.2001313  10.3951673  30.4502753  82.4011313
  10.2361673  29.1622753  81.9581313  10.6921673  29.7552753  82.1941313
   2.6221673  15.7432753  83.3321313   2.6961673  16.3112753  82.6741313
   2.7431673  16.2352753  84.0421313   2.6501673  15.9002753  83.3401313
   7.8471673  25.5782753  81.7441313   8.5481673  25.0962753  81.9331313
   7.1871673  25.0092753  81.7891313   7.8531673  25.4232753  81.7781313
   6.4141673  15.9132753  89.2201313   6.3191673  16.2322753  90.0261313
   5.8211673  15.2742753  89.1821313   6.3121673  15.8652753  89.3341313
   7.1131673  22.6322753  87.4251313   6.5991673  22.2202753  87.9961313
   6.9871673  23.4762753  87.6061313   7.0191673  22.6962753  87.5361313
   7.6701673  11.8572753  82.0561313   7.7191673  11.5392753  82.8671313
   7.9931673  11.2132753  81.5631313   7.7251673  11.7152753  82.1031313
  10.1341673  16.0932753  90.3641313  10.9061673  15.8682753  90.7011313
   9.6591673  16.3102753  91.0641313  10.1781673  16.0922753  90.5171313
  10.3661673  23.0712753  77.5521313  10.4851673  22.7842753  78.3671313
  11.1731673  23.0922753  77.2221313  10.5021673  23.0322753  77.6241313
  12.6001673  27.5802753  91.8061313  11.9181673  27.8902753  91.3591313
  12.2311673  27.1222753  92.4511313  12.4441673  27.5582753  91.8351313
   8.2611673  19.6082753  77.1371313   8.0411673  20.3392753  76.7151313
   7.8131673  19.6592753  77.8841313   8.1621673  19.7232753  77.1851313
  12.4481673  14.4692753  76.5901313  11.7861673  13.9012753  76.6131313
  12.2551673  14.9812753  75.9101313  12.3221673  14.4612753  76.4931313
  12.7711673  18.8472753  89.1461313  12.9861673  18.0472753  88.8701313
  11.9211673  18.9072753  88.9571313  12.6771673  18.7382753  89.0771313
  10.4501673  14.0272753  78.8691313  11.1961673  13.6202753  79.0681313
  10.7131673  14.7422753  78.4441313  10.5991673  14.0732753  78.8361313
   4.3931673  26.5132753  83.4451313   3.8701673  27.1472753  83.1521313
   4.7031673  26.1492753  82.7161313   4.3611673  26.5532753  83.2941313
   6.9041673  16.3152753  83.9421313   7.2481673  16.4672753  84.7291313
   6.4511673  15.5772753  84.0551313   6.8881673  16.2282753  84.0751313
  10.4341673  27.9622753  89.8961313   9.7631673  28.4762753  90.1141313
  10.4971673  28.0622753  89.0321313  10.3441673  28.0532753  89.8011313
   8.2251673  17.6472753  86.4961313   7.5631673  17.9752753  86.9591313
   8.4121673  18.2812753  85.9271313   8.1551673  17.7892753  86.4801313
   2.4301673  28.7112753  87.4921313   2.1531673  28.0702753  86.9691313
   2.2221673  29.4372753  87.0541313   2.3591673  28.7242753  87.3501313
   4.8701673  13.5532753  89.9251313   5.0191673  12.7282753  89.6821313
   5.2491673  13.6082753  90.7091313   4.9481673  13.4392753  90.0051313
   6.4181673  15.6162753  80.0071313   6.9081673  16.3332753  79.9301313
   5.6281673  15.8772753  79.7441313   6.3741673  15.7602753  79.9571313
   7.7321673  23.4942753  91.9171313   8.2161673  24.2122753  92.0151313
   8.1261673  23.0672753  91.2661313   7.8621673  23.5372753  91.8351313
   3.0001673  17.0862753  85.7321313   3.4801673  17.7852753  85.9401313
   3.3731673  16.4392753  86.1831313   3.1261673  17.0942753  85.8291313
   5.1891673  20.2552753  78.0061313   5.1811673  20.9772753  77.5161313
   4.5501673  20.3902753  78.5831313   5.0941673  20.3822753  78.0191313
  10.1611673  24.1252753  81.9871313  10.5171673  23.7752753  82.7021313
  10.1531673  23.4642753  81.4171313  10.2131673  23.9752753  82.0081313
   6.2061673  27.1912753  85.8311313   5.6031673  26.8952753  85.2741313
   6.7511673  27.6432753  85.3221313   6.1971673  27.2142753  85.6731313
   6.2191673  24.0422753  85.2311313   5.4221673  24.2662753  85.5051313
   6.4771673  23.4482753  85.8161313   6.1391673  23.9872753  85.3581313
   2.4031673  28.3702753  78.0811313   3.0251673  28.5332753  78.6711313
   2.4391673  29.0612753  77.5491313   2.5001673  28.4962753  78.0901313
   9.4791673  22.0402753  90.0771313   9.5341673  22.1652753  89.2151313
  10.2321673  22.3602753  90.3791313   9.5981673  22.1052753  89.9941313
   5.2101673  21.8462753  89.6771313   5.0551673  22.4562753  90.2811313
   5.7441673  21.2882753  90.0831313   5.2661673  21.8542753  89.8261313
   3.5941673  20.2462753  80.3351313   3.6531673  20.8962753  80.9141313
   3.4051673  19.5502753  80.8261313   3.5751673  20.2392753  80.4931313
   8.8201673  24.5752753  86.2041313   8.3411673  24.8732753  85.5381313
   8.4641673  23.7992753  86.3821313   8.6971673  24.5042753  86.1321313
   2.8171673  22.2932753  84.7661313   1.9701673  22.0992753  84.8471313
   3.1411673  22.1282753  85.5591313   2.7391673  22.2402753  84.8951313
  12.5121673  28.7412753  78.1441313  13.2061673  28.2742753  77.8961313
  11.9731673  28.1432753  78.4811313  12.5351673  28.5832753  78.1571313
   9.7511673  21.5172753  87.3231313   9.7441673  20.7412753  87.7211313
   8.9101673  21.7512753  87.3161313   9.6261673  21.4372753  87.3811313
  11.0071673  21.5882753  84.7601313  10.7211673  21.9892753  85.4801313
  11.8671673  21.5262753  84.8871313  11.0921673  21.6382753  84.8851313
  12.1381673  27.2212753  85.2891313  12.4281673  27.4782753  84.5081313
  12.8331673  27.3172753  85.8081313  12.2841673  27.2732753  85.2501313
   9.4291673  19.4002753  91.7411313   9.7481673  20.1862753  91.9441313
   9.0591673  19.1302753  92.4841313   9.4221673  19.4762753  91.8811313
   8.7431673  25.8242753  77.2711313   9.0771673  25.0182753  77.3061313
   7.9881673  25.7522753  77.7011313   8.6811673  25.6942753  77.3401313
   9.2251673  17.6582753  82.9301313   8.4801673  17.3352753  83.2481313
   9.2271673  18.4842753  83.2101313   9.1151673  17.7322753  83.0181313
  11.6651673  23.6182753  90.6821313  12.2931673  23.0692753  90.4261313
  11.6041673  24.1832753  90.0201313  11.7491673  23.6212753  90.5461313
   6.1171673  23.6992753  76.6741313   6.8011673  23.1852753  76.5051313
   5.7001673  23.7452753  75.9091313   6.1561673  23.6302753  76.5361313
   8.1371673  13.9882753  90.3911313   8.8811673  14.4402753  90.3281313
   7.5711673  14.4582753  89.9221313   8.1641673  14.1252753  90.3131313
   3.3151673  21.2722753  87.4691313   3.7911673  21.6462753  88.0971313
   2.4921673  21.4062753  87.7281313   3.2641673  21.3472753  87.6001313
   2.5791673  28.6652753  82.6971313   3.1251673  29.3442753  82.7511313
   2.2291673  28.7472753  81.9021313   2.6081673  28.7782753  82.5871313
   9.4221673  11.9682753  88.0611313   9.1421673  12.7932753  88.0171313
  10.1381673  12.0212753  88.5571313   9.4871673  12.0982753  88.1281313
   1.7771673  12.6832753  90.0901313   2.4821673  13.0032753  89.6881313
   2.0181673  11.8762753  90.3171313   1.9161673  12.6112753  90.0641313
   8.9801673  26.0772753  91.5791313   9.3261673  26.3472753  92.3331313
   9.2741673  26.6592753  90.9991313   9.0751673  26.2032753  91.6051313
  10.8431673  18.2232753  76.9181313  11.2211673  18.9002753  76.5181313
  10.0011673  18.4472753  76.9491313  10.7741673  18.3562753  76.8631313
   6.3021673  16.8382753  91.7431313   5.6541673  17.3082753  92.0911313
   6.8671673  16.7492753  92.4021313   6.2901673  16.8942753  91.8921313
   5.9901673  18.3752753  88.0411313   6.2921673  18.7952753  88.7441313
   6.0261673  17.5352753  88.2731313   6.0401673  18.3132753  88.1791313
   3.4151673  28.5422753  91.9661313   3.8931673  27.9422753  91.5501313
   3.0641673  28.0992753  92.6311313   3.4341673  28.3882753  92.0031313
   8.5381673  17.8222753  80.2931313   8.7451673  17.6212753  81.1171313
   9.2941673  18.0902753  79.9511313   8.6801673  17.8322753  80.3641313
   9.5601673  13.9052753  81.7671313   8.8461673  13.4342753  81.9381313
   9.3981673  14.2462753  80.9811313   9.4311673  13.8862753  81.6761313
  10.0031673  21.8492753  80.1471313  10.4791673  21.1202753  80.0991313
   9.1821673  21.5632753  80.0711313   9.9521673  21.6992753  80.1281313
   3.4741673  23.7612753  90.9861313   2.6791673  23.6972753  91.3371313
   3.5451673  24.6082753  90.7911313   3.3671673  23.8762753  91.0091313
   6.2191673  23.0162753  82.5021313   6.2951673  23.3572753  83.3011313
   6.3881673  22.1692753  82.6231313   6.2551673  22.9412753  82.6381313
   3.7411673  22.2902753  82.0671313   3.4431673  21.9752753  82.8241313
   4.4361673  22.7632753  82.3021313   3.8001673  22.3132753  82.2141313
   3.9631673  26.4082753  90.0941313   4.6501673  26.2942753  90.6191313
   4.0971673  27.1992753  89.7501313   4.0841673  26.5082753  90.1211313
  12.1391673  19.0172753  91.9051313  11.2841673  18.8952753  92.0311313
  12.2921673  18.6222753  91.1421313  12.0351673  18.9402753  91.8111313
   6.6521673  19.6822753  90.4811313   6.3971673  18.9632753  90.9031313
   7.4731673  19.7982753  90.7511313   6.7361673  19.5932753  90.5831313
   7.6701673  29.2462753  84.5971313   7.2191673  29.8892753  84.9761313
   8.3781673  29.1672753  85.1021313   7.7081673  29.3292753  84.7281313
   4.3711673  24.3362753  87.5271313   3.6771673  24.7382753  87.8701313
   5.0481673  24.7692753  87.8661313   4.3681673  24.4592753  87.6281313
  10.7731673  18.9622753  79.5891313  10.8761673  18.9042753  78.7251313
  11.5141673  18.6302753  79.9071313  10.8981673  18.9052753  79.5081313
   4.6931673  25.9272753  80.6961313   4.4881673  26.7602753  80.5371313
   3.9181673  25.5452753  80.8181313   4.5481673  25.9942753  80.6911313
   9.8751673  19.1082753  88.9451313   9.8731673  18.2452753  89.0691313
   9.9421673  19.4322753  89.7521313   9.8851673  19.0282753  89.0821313
   4.7481673  14.0982753  83.5811313   4.0481673  14.6162753  83.5251313
   4.7861673  13.7182753  82.7971313   4.6501673  14.1192753  83.4571313
   8.3461673  14.6142753  86.3811313   9.2011673  14.7132753  86.5261313
   7.9771673  15.1672753  86.9461313   8.4181673  14.7112753  86.4861313
   8.6501673  19.8942753  84.8721313   9.3161673  20.4352753  85.0321313
   8.3051673  20.2052753  84.1331313   8.6971673  20.0202753  84.7871313
   8.9631673  27.9602753  80.6791313   8.7891673  27.3062753  81.2291313
   9.6761673  27.6892753  80.2561313   9.0431673  27.8232753  80.6981313
  11.8211673  12.4522753  89.5371313  11.7691673  12.4082753  90.4071313
  12.5081673  11.9492753  89.3471313  11.9151673  12.3722753  89.6371313
   3.9061673  14.5652753  86.5821313   3.1691673  14.1112753  86.6951313
   4.4771673  14.1632753  87.1051313   3.8811673  14.4382753  86.6761313
   6.6381673  25.4132753  88.3701313   6.8441673  25.7142753  89.1621313
   6.5771673  26.1352753  87.8851313   6.6591673  25.5642753  88.4151313
  11.4501673  24.0522753  87.8281313  11.4181673  23.1902753  87.6931313
  10.7571673  24.3542753  87.3941313  11.3431673  23.9692753  87.7441313
   9.5551673  27.3122753  86.6251313  10.0821673  27.2292753  85.9341313
   9.1641673  26.5342753  86.6791313   9.5751673  27.1852753  86.5311313
   6.0691673  12.7562753  85.8331313   6.7391673  13.3002753  85.9601313
   5.5661673  13.1802753  85.2601313   6.0941673  12.8992753  85.7671313
   5.4281673  18.5642753  83.3261313   5.9791673  17.9572753  83.6261313
   5.0031673  18.8272753  84.0411313   5.4471673  18.5132753  83.4751313
   7.3981673  20.3952753  79.8881313   7.4661673  19.5452753  80.0691313
   6.5751673  20.4812753  79.6101313   7.2861673  20.2822753  79.8741313
  10.4771673  29.3502753  76.3061313  11.1141673  29.2162753  76.8871313
  10.1361673  28.5562753  76.1891313  10.5211673  29.2132753  76.3741313
   6.5521673  25.6152753  78.6281313   6.3011673  25.4872753  79.4541313
   6.2351673  24.9202753  78.2071313   6.4681673  25.4942753  78.6881313
  11.1961673  17.2732753  86.7481313  10.3631673  17.5232753  86.6761313
  11.1401673  16.4332753  86.9771313  11.0651673  17.1862753  86.7711313
   3.4381673  23.8232753  78.0581313   4.1551673  23.4762753  77.7021313
   3.4041673  24.6232753  77.7101313   3.5391673  23.8902753  77.9541313
   4.8471673  12.4642753  62.2968903   4.6021673  12.9522753  61.6168903
   5.7101673  12.3912753  62.1968903   4.9381673  12.5252753  62.1818903
   4.6561673  19.3802753  66.9678903   4.1321673  19.9762753  67.3308903
   5.0531673  19.0122753  67.6518903   4.6371673  19.4142753  67.1228903
  10.8001673  26.8212753  59.9388903  11.5011673  26.3022753  59.9348903
  10.2131673  26.3762753  59.4698903  10.8171673  26.6782753  59.8688903
   7.3271673  20.4472753  63.6438903   7.4071673  20.4512753  62.7748903
   6.7431673  19.8152753  63.7928903   7.2521673  20.3542753  63.5378903
   2.1161673  24.8572753  65.5138903   2.4641673  24.0582753  65.5438903
   2.7811673  25.3612753  65.2588903   2.2661673  24.8132753  65.4808903
   2.1731673  24.3062753  61.7248903   2.5041673  23.6622753  62.2108903
   2.4131673  24.0952753  60.9138903   2.2571673  24.1802753  61.6768903
   4.1411673  18.4372753  73.0638903   3.2931673  18.3382753  72.8858903
   4.1701673  19.1822753  73.5178903   4.0201673  18.5332753  73.1048903
   8.6991673  11.3972753  72.1778903   8.5411673  12.1662753  71.7958903
   7.9271673  11.1772753  72.5218903   8.5611673  11.4782753  72.1728903
   6.1611673  16.0382753  56.6918903   5.7111673  16.7192753  56.9988903
   6.2751673  15.5342753  57.3948903   6.1121673  16.0642753  56.8408903
   6.2601673  28.3792753  58.7958903   6.9871673  28.8512753  58.8978903
   6.4891673  27.5852753  59.0758903   6.4021673  28.3322753  58.8528903
   4.4281673  28.7712753  60.7858903   4.6421673  29.2982753  61.4478903
   5.1951673  28.5972753  60.4068903   4.5731673  28.8232753  60.8278903
  11.5551673  16.0112753  62.9868903  11.2091673  16.6892753  63.4128903
  10.9191673  15.4132753  63.0028903  11.4101673  16.0232753  63.0518903
   6.8671673  28.7812753  69.0908903   7.6111673  29.2372753  69.0808903
   6.7461673  28.5672753  68.2538903   6.9591673  28.8172753  68.9658903
   3.0841673  12.7272753  73.8348903   3.2621673  11.9182753  73.5598903
   2.9411673  13.1682753  73.0958903   3.0891673  12.6732753  73.6848903
   3.6781673  17.6532753  62.6078903   3.9651673  17.4212753  61.8178903
   4.4101673  17.7322753  63.0768903   3.8281673  17.6302753  62.5608903
   4.4001673  17.9922753  57.7288903   4.6811673  18.7802753  57.9778903
   3.6241673  18.1572753  57.3658903   4.3271673  18.1332753  57.7118903
   8.4411673  29.9662753  59.1958903   9.1061673  29.8182753  58.6508903
   8.8011673  29.8832753  59.9858903   8.5931673  29.9322753  59.2318903
  11.2301673  14.3342753  68.3558903  11.9871673  14.4062753  67.9278903
  11.2931673  13.5612753  68.7548903  11.3511673  14.2312753  68.3508903
   6.1211673  25.9662753  72.7948903   6.0871673  26.3482753  73.5788903
   6.9751673  25.9242753  72.6238903   6.2421673  26.0162753  72.8858903
   3.2591673  26.1632753  57.5448903   3.0781673  26.7082753  58.2018903
   4.0251673  26.4532753  57.2438903   3.3451673  26.2872753  57.5978903
   6.7661673  14.0592753  58.5988903   7.3061673  13.3772753  58.6748903
   6.8281673  14.4572753  59.3728903   6.8551673  14.0172753  58.7248903
   4.0241673  16.4352753  59.9128903   3.5161673  15.7732753  59.6588903
   4.0761673  16.9392753  59.2028903   3.9571673  16.4122753  59.7708903
   4.5731673  29.1302753  70.2928903   5.3411673  29.0502753  69.8868903
   3.9901673  29.0092753  69.6548903   4.6001673  29.1002753  70.1388903
   4.0241673  13.3762753  59.8038903   3.5691673  12.9742753  59.1778903
   4.7971673  13.5312753  59.4288903   4.0711673  13.3402753  59.6558903
  10.8501673  29.7332753  63.1938903  10.3951673  30.4502753  63.3948903
  10.2361673  29.1622753  62.9518903  10.6921673  29.7552753  63.1878903
   2.6221673  15.7432753  64.3258903   2.6961673  16.3112753  63.6678903
   2.7431673  16.2352753  65.0358903   2.6501673  15.9002753  64.3338903
   7.8471673  25.5782753  62.7378903   8.5481673  25.0962753  62.9268903
   7.1871673  25.0092753  62.7828903   7.8531673  25.4232753  62.7718903
   6.4141673  15.9132753  70.2138903   6.3191673  16.2322753  71.0198903
   5.8211673  15.2742753  70.1758903   6.3121673  15.8652753  70.3278903
   7.1131673  22.6322753  68.4188903   6.5991673  22.2202753  68.9898903
   6.9871673  23.4762753  68.5998903   7.0191673  22.6962753  68.5298903
   7.6701673  11.8572753  63.0498903   7.7191673  11.5392753  63.8608903
   7.9931673  11.2132753  62.5568903   7.7251673  11.7152753  63.0968903
  10.1341673  16.0932753  71.3578903  10.9061673  15.8682753  71.6948903
   9.6591673  16.3102753  72.0578903  10.1781673  16.0922753  71.5108903
  10.3661673  23.0712753  58.5458903  10.4851673  22.7842753  59.3608903
  11.1731673  23.0922753  58.2158903  10.5021673  23.0322753  58.6178903
  12.6001673  27.5802753  72.7998903  11.9181673  27.8902753  72.3528903
  12.2311673  27.1222753  73.4448903  12.4441673  27.5582753  72.8288903
   8.2611673  19.6082753  58.1308903   8.0411673  20.3392753  57.7088903
   7.8131673  19.6592753  58.8778903   8.1621673  19.7232753  58.1788903
  12.4481673  14.4692753  57.5838903  11.7861673  13.9012753  57.6068903
  12.2551673  14.9812753  56.9038903  12.3221673  14.4612753  57.4868903
  12.7711673  18.8472753  70.1398903  12.9861673  18.0472753  69.8638903
  11.9211673  18.9072753  69.9508903  12.6771673  18.7382753  70.0708903
  10.4501673  14.0272753  59.8628903  11.1961673  13.6202753  60.0618903
  10.7131673  14.7422753  59.4378903  10.5991673  14.0732753  59.8298903
   4.3931673  26.5132753  64.4388903   3.8701673  27.1472753  64.1458903
   4.7031673  26.1492753  63.7098903   4.3611673  26.5532753  64.2878903
   6.9041673  16.3152753  64.9358903   7.2481673  16.4672753  65.7228903
   6.4511673  15.5772753  65.0488903   6.8881673  16.2282753  65.0688903
  10.4341673  27.9622753  70.8898903   9.7631673  28.4762753  71.1078903
  10.4971673  28.0622753  70.0258903  10.3441673  28.0532753  70.7948903
   8.2251673  17.6472753  67.4898903   7.5631673  17.9752753  67.9528903
   8.4121673  18.2812753  66.9208903   8.1551673  17.7892753  67.4738903
   2.4301673  28.7112753  68.4858903   2.1531673  28.0702753  67.9628903
   2.2221673  29.4372753  68.0478903   2.3591673  28.7242753  68.3438903
   4.8701673  13.5532753  70.9188903   5.0191673  12.7282753  70.6758903
   5.2491673  13.6082753  71.7028903   4.9481673  13.4392753  70.9988903
   6.4181673  15.6162753  61.0008903   6.9081673  16.3332753  60.9238903
   5.6281673  15.8772753  60.7378903   6.3741673  15.7602753  60.9508903
   7.7321673  23.4942753  72.9108903   8.2161673  24.2122753  73.0088903
   8.1261673  23.0672753  72.2598903   7.8621673  23.5372753  72.8288903
   3.0001673  17.0862753  66.7258903   3.4801673  17.7852753  66.9338903
   3.3731673  16.4392753  67.1768903   3.1261673  17.0942753  66.8228903
   5.1891673  20.2552753  58.9998903   5.1811673  20.9772753  58.5098903
   4.5501673  20.3902753  59.5768903   5.0941673  20.3822753  59.0128903
  10.1611673  24.1252753  62.9808903  10.5171673  23.7752753  63.6958903
  10.1531673  23.4642753  62.4108903  10.2131673  23.9752753  63.0018903
   6.2061673  27.1912753  66.8248903   5.6031673  26.8952753  66.2678903
   6.7511673  27.6432753  66.3158903   6.1971673  27.2142753  66.6668903
   6.2191673  24.0422753  66.2248903   5.4221673  24.2662753  66.4988903
   6.4771673  23.4482753  66.8098903   6.1391673  23.9872753  66.3518903
   2.4031673  28.3702753  59.0748903   3.0251673  28.5332753  59.6648903
   2.4391673  29.0612753  58.5428903   2.5001673  28.4962753  59.0838903
   9.4791673  22.0402753  71.0708903   9.5341673  22.1652753  70.2088903
  10.2321673  22.3602753  71.3728903   9.5981673  22.1052753  70.9878903
   5.6701673  27.3892753  75.3478903   5.8341673  27.6722753  76.1568903
   5.9331673  28.0502753  74.8428903   5.7331673  27.5292753  75.3928903
  10.5111673  12.3382753  74.0578903   9.8741673  11.9382753  73.6158903
  10.5371673  11.9072753  74.8158903  10.4211673  12.2162753  74.1038903
   5.2101673  21.8462753  70.6708903   5.0551673  22.4562753  71.2748903
   5.7441673  21.2882753  71.0768903   5.2661673  21.8542753  70.8198903
   3.5941673  20.2462753  61.3288903   3.6531673  20.8962753  61.9078903
   3.4051673  19.5502753  61.8198903   3.5751673  20.2392753  61.4868903
   8.8201673  24.5752753  67.1978903   8.3411673  24.8732753  66.5318903
   8.4641673  23.7992753  67.3758903   8.6971673  24.5042753  67.1258903
   2.8171673  22.2932753  65.7598903   1.9701673  22.0992753  65.8408903
   3.1411673  22.1282753  66.5528903   2.7391673  22.2402753  65.8888903
  12.5121673  28.7412753  59.1378903  13.2061673  28.2742753  58.8898903
  11.9731673  28.1432753  59.4748903  12.5351673  28.5832753  59.1508903
   9.7511673  21.5172753  68.3168903   9.7441673  20.7412753  68.7148903
   8.9101673  21.7512753  68.3098903   9.6261673  21.4372753  68.3748903
  11.0071673  21.5882753  65.7538903  10.7211673  21.9892753  66.4738903
  11.8671673  21.5262753  65.8808903  11.0921673  21.6382753  65.8788903
   8.6691673  15.5122753  74.2938903   8.1441673  15.9712753  74.8178903
   8.3081673  14.7172753  74.2878903   8.5381673  15.4622753  74.3698903
  12.1381673  27.2212753  66.2828903  12.4281673  27.4782753  65.5018903
  12.8331673  27.3172753  66.8018903  12.2841673  27.2732753  66.2438903
   7.1611673  19.0812753  74.3698903   7.2341673  19.1852753  75.2328903
   6.5271673  19.6392753  74.1488903   7.0781673  19.1792753  74.4648903
   9.4291673  19.4002753  72.7348903   9.7481673  20.1862753  72.9378903
   9.0591673  19.1302753  73.4778903   9.4221673  19.4762753  72.8748903
   8.7431673  25.8242753  58.2648903   9.0771673  25.0182753  58.2998903
   7.9881673  25.7522753  58.6948903   8.6811673  25.6942753  58.3338903
   9.2251673  17.6582753  63.9238903   8.4801673  17.3352753  64.2418903
   9.2271673  18.4842753  64.2038903   9.1151673  17.7322753  64.0118903
  12.1271673  19.9422753  75.4698903  12.0751673  19.6012753  74.6688903
  12.8641673  20.4092753  75.4478903  12.2281673  19.9612753  75.3478903
  11.6651673  23.6182753  71.6758903  12.2931673  23.0692753  71.4198903
  11.6041673  24.1832753  71.0138903  11.7491673  23.6212753  71.5398903
   6.1171673  23.6992753  57.6678903   6.8011673  23.1852753  57.4988903
   5.7001673  23.7452753  56.9028903   6.1561673  23.6302753  57.5298903
   8.1371673  13.9882753  71.3848903   8.8811673  14.4402753  71.3218903
   7.5711673  14.4582753  70.9158903   8.1641673  14.1252753  71.3068903
   3.3151673  21.2722753  68.4628903   3.7911673  21.6462753  69.0908903
   2.4921673  21.4062753  68.7218903   3.2641673  21.3472753  68.5938903
   2.5791673  28.6652753  63.6908903   3.1251673  29.3442753  63.7448903
   2.2291673  28.7472753  62.8958903   2.6081673  28.7782753  63.5808903
   9.4221673  11.9682753  69.0548903   9.1421673  12.7932753  69.0108903
  10.1381673  12.0212753  69.5508903   9.4871673  12.0982753  69.1218903
   1.7771673  12.6832753  71.0838903   2.4821673  13.0032753  70.6818903
   2.0181673  11.8762753  71.3108903   1.9161673  12.6112753  71.0578903
   5.0711673  23.5272753  74.0688903   5.8281673  23.8132753  73.7428903
   4.5241673  23.5792753  73.3908903   5.1021673  23.5772753  73.9198903
   8.9801673  26.0772753  72.5728903   9.3261673  26.3472753  73.3268903
   9.2741673  26.6592753  71.9928903   9.0751673  26.2032753  72.5988903
  10.8431673  18.2232753  57.9118903  11.2211673  18.9002753  57.5118903
  10.0011673  18.4472753  57.9428903  10.7741673  18.3562753  57.8568903
   6.3021673  16.8382753  72.7368903   5.6541673  17.3082753  73.0848903
   6.8671673  16.7492753  73.3958903   6.2901673  16.8942753  72.8858903
   5.9901673  18.3752753  69.0348903   6.2921673  18.7952753  69.7378903
   6.0261673  17.5352753  69.2668903   6.0401673  18.3132753  69.1728903
   3.4151673  28.5422753  72.9598903   3.8931673  27.9422753  72.5438903
   3.0641673  28.0992753  73.6248903   3.4341673  28.3882753  72.9968903
   8.5381673  17.8222753  61.2868903   8.7451673  17.6212753  62.1108903
   9.2941673  18.0902753  60.9448903   8.6801673  17.8322753  61.3578903
   9.5601673  13.9052753  62.7608903   8.8461673  13.4342753  62.9318903
   9.3981673  14.2462753  61.9748903   9.4311673  13.8862753  62.6698903
  10.0031673  21.8492753  61.1408903  10.4791673  21.1202753  61.0928903
   9.1821673  21.5632753  61.0648903   9.9521673  21.6992753  61.1218903
   3.4741673  23.7612753  71.9798903   2.6791673  23.6972753  72.3308903
   3.5451673  24.6082753  71.7848903   3.3671673  23.8762753  72.0028903
   6.2191673  23.0162753  63.4958903   6.2951673  23.3572753  64.2948903
   6.3881673  22.1692753  63.6168903   6.2551673  22.9412753  63.6318903
   3.7411673  22.2902753  63.0608903   3.4431673  21.9752753  63.8178903
   4.4361673  22.7632753  63.2958903   3.8001673  22.3132753  63.2078903
   3.9631673  26.4082753  71.0878903   4.6501673  26.2942753  71.6128903
   4.0971673  27.1992753  70.7438903   4.0841673  26.5082753  71.1148903
  12.1391673  19.0172753  72.8988903  11.2841673  18.8952753  73.0248903
  12.2921673  18.6222753  72.1358903  12.0351673  18.9402753  72.8048903
   6.6521673  19.6822753  71.4748903   6.3971673  18.9632753  71.8968903
   7.4731673  19.7982753  71.7448903   6.7361673  19.5932753  71.5768903
   4.5861673  20.8722753  74.6618903   4.9091673  21.5582753  74.2298903
   3.8821673  21.1952753  75.0638903   4.5291673  21.0212753  74.6568903
   7.6701673  29.2462753  65.5908903   7.2191673  29.8892753  65.9698903
   8.3781673  29.1672753  66.0958903   7.7081673  29.3292753  65.7218903
   4.3711673  24.3362753  68.5208903   3.6771673  24.7382753  68.8638903
   5.0481673  24.7692753  68.8598903   4.3681673  24.4592753  68.6218903
   9.7481673  26.9292753  75.1008903  10.5241673  26.5392753  75.1838903
   9.2791673  26.5932753  75.7558903   9.7931673  26.8222753  75.2098903
  10.7731673  18.9622753  60.5828903  10.8761673  18.9042753  59.7188903
  11.5141673  18.6302753  60.9008903  10.8981673  18.9052753  60.5018903
   4.6931673  25.9272753  61.6898903   4.4881673  26.7602753  61.5308903
   3.9181673  25.5452753  61.8118903   4.5481673  25.9942753  61.6848903
   9.8751673  19.1082753  69.9388903   9.8731673  18.2452753  70.0628903
   9.9421673  19.4322753  70.7458903   9.8851673  19.0282753  70.0758903
   5.7541673  13.9082753  73.7208903   5.8461673  14.6202753  74.2148903
   5.1171673  13.4632753  74.1178903   5.6731673  13.9472753  73.8528903
   4.7481673  14.0982753  64.5748903   4.0481673  14.6162753  64.5188903
   4.7861673  13.7182753  63.7908903   4.6501673  14.1192753  64.4508903
   8.3461673  14.6142753  67.3748903   9.2011673  14.7132753  67.5198903
   7.9771673  15.1672753  67.9398903   8.4181673  14.7112753  67.4798903
   8.6501673  19.8942753  65.8658903   9.3161673  20.4352753  66.0258903
   8.3051673  20.2052753  65.1268903   8.6971673  20.0202753  65.7808903
   8.9631673  27.9602753  61.6728903   8.7891673  27.3062753  62.2228903
   9.6761673  27.6892753  61.2498903   9.0431673  27.8232753  61.6918903
  11.8211673  12.4522753  70.5308903  11.7691673  12.4082753  71.4008903
  12.5081673  11.9492753  70.3408903  11.9151673  12.3722753  70.6308903
   3.9061673  14.5652753  67.5758903   3.1691673  14.1112753  67.6888903
   4.4771673  14.1632753  68.0988903   3.8811673  14.4382753  67.6698903
   6.6381673  25.4132753  69.3638903   6.8441673  25.7142753  70.1558903
   6.5771673  26.1352753  68.8788903   6.6591673  25.5642753  69.4088903
   6.1721673  29.6272753  73.6098903   5.4191673  29.6092753  73.1688903
   6.3401673  30.4792753  73.6938903   6.0861673  29.7502753  73.5568903
  11.4501673  24.0522753  68.8218903  11.4181673  23.1902753  68.6868903
  10.7571673  24.3542753  68.3878903  11.3431673  23.9692753  68.7378903
   9.5551673  27.3122753  67.6188903  10.0821673  27.2292753  66.9278903
   9.1641673  26.5342753  67.6728903   9.5751673  27.1852753  67.5248903
   6.0691673  12.7562753  66.8268903   6.7391673  13.3002753  66.9538903
   5.5661673  13.1802753  66.2538903   6.0941673  12.8992753  66.7608903
   5.4281673  18.5642753  64.3198903   5.9791673  17.9572753  64.6198903
   5.0031673  18.8272753  65.0348903   5.4471673  18.5132753  64.4688903
   7.3981673  20.3952753  60.8818903   7.4661673  19.5452753  61.0628903
   6.5751673  20.4812753  60.6038903   7.2861673  20.2822753  60.8678903
  10.4771673  29.3502753  57.2998903  11.1141673  29.2162753  57.8808903
  10.1361673  28.5562753  57.1828903  10.5211673  29.2132753  57.3678903
  10.6721673  21.7682753  74.0328903  11.3061673  21.5982753  74.6068903
  11.0891673  22.1712753  73.3808903  10.8271673  21.8032753  74.0218903
   6.5521673  25.6152753  59.6218903   6.3011673  25.4872753  60.4478903
   6.2351673  24.9202753  59.2008903   6.4681673  25.4942753  59.6818903
  11.2971673  16.3322753  74.7708903  11.1011673  16.9762753  75.3258903
  10.5751673  15.8422753  74.7628903  11.1621673  16.3552753  74.8518903
  11.1961673  17.2732753  67.7418903  10.3631673  17.5232753  67.6698903
  11.1401673  16.4332753  67.9708903  11.0651673  17.1862753  67.7648903
   8.0831673  21.8792753  75.3878903   8.9541673  21.8432753  75.3518903
   7.8641673  22.2992753  74.6558903   8.1801673  21.9352753  75.2748903
   3.4381673  23.8232753  59.0518903   4.1551673  23.4762753  58.6958903
   3.4041673  24.6232753  58.7038903   3.5391673  23.8902753  58.9478903
   4.8471673  12.4642753  43.2906493   4.6021673  12.9522753  42.6106493
   5.7101673  12.3912753  43.1906493   4.9381673  12.5252753  43.1756493
   4.6561673  19.3802753  47.9616493   4.1321673  19.9762753  48.3246493
   5.0531673  19.0122753  48.6456493   4.6371673  19.4142753  48.1166493
  10.8001673  26.8212753  40.9326493  11.5011673  26.3022753  40.9286493
  10.2131673  26.3762753  40.4636493  10.8171673  26.6782753  40.8626493
   7.3271673  20.4472753  44.6376493   7.4071673  20.4512753  43.7686493
   6.7431673  19.8152753  44.7866493   7.2521673  20.3542753  44.5316493
   2.1161673  24.8572753  46.5076493   2.4641673  24.0582753  46.5376493
   2.7811673  25.3612753  46.2526493   2.2661673  24.8132753  46.4746493
   2.1731673  24.3062753  42.7186493   2.5041673  23.6622753  43.2046493
   2.4131673  24.0952753  41.9076493   2.2571673  24.1802753  42.6706493
   4.1411673  18.4372753  54.0576493   3.2931673  18.3382753  53.8796493
   4.1701673  19.1822753  54.5116493   4.0201673  18.5332753  54.0986493
   8.6991673  11.3972753  53.1716493   8.5411673  12.1662753  52.7896493
   7.9271673  11.1772753  53.5156493   8.5611673  11.4782753  53.1666493
   6.1611673  16.0382753  37.6856493   5.7111673  16.7192753  37.9926493
   6.2751673  15.5342753  38.3886493   6.1121673  16.0642753  37.8346493
   6.2601673  28.3792753  39.7896493   6.9871673  28.8512753  39.8916493
   6.4891673  27.5852753  40.0696493   6.4021673  28.3322753  39.8466493
   4.4281673  28.7712753  41.7796493   4.6421673  29.2982753  42.4416493
   5.1951673  28.5972753  41.4006493   4.5731673  28.8232753  41.8216493
  11.5551673  16.0112753  43.9806493  11.2091673  16.6892753  44.4066493
  10.9191673  15.4132753  43.9966493  11.4101673  16.0232753  44.0456493
   6.8671673  28.7812753  50.0846493   7.6111673  29.2372753  50.0746493
   6.7461673  28.5672753  49.2476493   6.9591673  28.8172753  49.9596493
   3.0841673  12.7272753  54.8286493   3.2621673  11.9182753  54.5536493
   2.9411673  13.1682753  54.0896493   3.0891673  12.6732753  54.6786493
   3.6781673  17.6532753  43.6016493   3.9651673  17.4212753  42.8116493
   4.4101673  17.7322753  44.0706493   3.8281673  17.6302753  43.5546493
   4.4001673  17.9922753  38.7226493   4.6811673  18.7802753  38.9716493
   3.6241673  18.1572753  38.3596493   4.3271673  18.1332753  38.7056493
   8.4411673  29.9662753  40.1896493   9.1061673  29.8182753  39.6446493
   8.8011673  29.8832753  40.9796493   8.5931673  29.9322753  40.2256493
  11.2301673  14.3342753  49.3496493  11.9871673  14.4062753  48.9216493
  11.2931673  13.5612753  49.7486493  11.3511673  14.2312753  49.3446493
   6.1211673  25.9662753  53.7886493   6.0871673  26.3482753  54.5726493
   6.9751673  25.9242753  53.6176493   6.2421673  26.0162753  53.8796493
   3.2591673  26.1632753  38.5386493   3.0781673  26.7082753  39.1956493
   4.0251673  26.4532753  38.2376493   3.3451673  26.2872753  38.5916493
   6.7661673  14.0592753  39.5926493   7.3061673  13.3772753  39.6686493
   6.8281673  14.4572753  40.3666493   6.8551673  14.0172753  39.7186493
   4.0241673  16.4352753  40.9066493   3.5161673  15.7732753  40.6526493
   4.0761673  16.9392753  40.1966493   3.9571673  16.4122753  40.7646493
   4.5731673  29.1302753  51.2866493   5.3411673  29.0502753  50.8806493
   3.9901673  29.0092753  50.6486493   4.6001673  29.1002753  51.1326493
   4.0241673  13.3762753  40.7976493   3.5691673  12.9742753  40.1716493
   4.7971673  13.5312753  40.4226493   4.0711673  13.3402753  40.6496493
  10.8501673  29.7332753  44.1876493  10.3951673  30.4502753  44.3886493
  10.2361673  29.1622753  43.9456493  10.6921673  29.7552753  44.1816493
   2.6221673  15.7432753  45.3196493   2.6961673  16.3112753  44.6616493
   2.7431673  16.2352753  46.0296493   2.6501673  15.9002753  45.3276493
   7.8471673  25.5782753  43.7316493   8.5481673  25.0962753  43.9206493
   7.1871673  25.0092753  43.7766493   7.8531673  25.4232753  43.7656493
   6.4141673  15.9132753  51.2076493   6.3191673  16.2322753  52.0136493
   5.8211673  15.2742753  51.1696493   6.3121673  15.8652753  51.3216493
   7.1131673  22.6322753  49.4126493   6.5991673  22.2202753  49.9836493
   6.9871673  23.4762753  49.5936493   7.0191673  22.6962753  49.5236493
   7.6701673  11.8572753  44.0436493   7.7191673  11.5392753  44.8546493
   7.9931673  11.2132753  43.5506493   7.7251673  11.7152753  44.0906493
  10.1341673  16.0932753  52.3516493  10.9061673  15.8682753  52.6886493
   9.6591673  16.3102753  53.0516493  10.1781673  16.0922753  52.5046493
  10.3661673  23.0712753  39.5396493  10.4851673  22.7842753  40.3546493
  11.1731673  23.0922753  39.2096493  10.5021673  23.0322753  39.6116493
  12.6001673  27.5802753  53.7936493  11.9181673  27.8902753  53.3466493
  12.2311673  27.1222753  54.4386493  12.4441673  27.5582753  53.8226493
   8.2611673  19.6082753  39.1246493   8.0411673  20.3392753  38.7026493
   7.8131673  19.6592753  39.8716493   8.1621673  19.7232753  39.1726493
  12.4481673  14.4692753  38.5776493  11.7861673  13.9012753  38.6006493
  12.2551673  14.9812753  37.8976493  12.3221673  14.4612753  38.4806493
  12.7711673  18.8472753  51.1336493  12.9861673  18.0472753  50.8576493
  11.9211673  18.9072753  50.9446493  12.6771673  18.7382753  51.0646493
  10.4501673  14.0272753  40.8566493  11.1961673  13.6202753  41.0556493
  10.7131673  14.7422753  40.4316493  10.5991673  14.0732753  40.8236493
   4.3931673  26.5132753  45.4326493   3.8701673  27.1472753  45.1396493
   4.7031673  26.1492753  44.7036493   4.3611673  26.5532753  45.2816493
   6.9041673  16.3152753  45.9296493   7.2481673  16.4672753  46.7166493
   6.4511673  15.5772753  46.0426493   6.8881673  16.2282753  46.0626493
  10.4341673  27.9622753  51.8836493   9.7631673  28.4762753  52.1016493
  10.4971673  28.0622753  51.0196493  10.3441673  28.0532753  51.7886493
   8.2251673  17.6472753  48.4836493   7.5631673  17.9752753  48.9466493
   8.4121673  18.2812753  47.9146493   8.1551673  17.7892753  48.4676493
   2.4301673  28.7112753  49.4796493   2.1531673  28.0702753  48.9566493
   2.2221673  29.4372753  49.0416493   2.3591673  28.7242753  49.3376493
   4.8701673  13.5532753  51.9126493   5.0191673  12.7282753  51.6696493
   5.2491673  13.6082753  52.6966493   4.9481673  13.4392753  51.9926493
   6.4181673  15.6162753  41.9946493   6.9081673  16.3332753  41.9176493
   5.6281673  15.8772753  41.7316493   6.3741673  15.7602753  41.9446493
   7.7321673  23.4942753  53.9046493   8.2161673  24.2122753  54.0026493
   8.1261673  23.0672753  53.2536493   7.8621673  23.5372753  53.8226493
   3.0001673  17.0862753  47.7196493   3.4801673  17.7852753  47.9276493
   3.3731673  16.4392753  48.1706493   3.1261673  17.0942753  47.8166493
   5.1891673  20.2552753  39.9936493   5.1811673  20.9772753  39.5036493
   4.5501673  20.3902753  40.5706493   5.0941673  20.3822753  40.0066493
  10.1611673  24.1252753  43.9746493  10.5171673  23.7752753  44.6896493
  10.1531673  23.4642753  43.4046493  10.2131673  23.9752753  43.9956493
   6.2061673  27.1912753  47.8186493   5.6031673  26.8952753  47.2616493
   6.7511673  27.6432753  47.3096493   6.1971673  27.2142753  47.6606493
   6.2191673  24.0422753  47.2186493   5.4221673  24.2662753  47.4926493
   6.4771673  23.4482753  47.8036493   6.1391673  23.9872753  47.3456493
   2.4031673  28.3702753  40.0686493   3.0251673  28.5332753  40.6586493
   2.4391673  29.0612753  39.5366493   2.5001673  28.4962753  40.0776493
   9.4791673  22.0402753  52.0646493   9.5341673  22.1652753  51.2026493
  10.2321673  22.3602753  52.3666493   9.5981673  22.1052753  51.9816493
   5.6701673  27.3892753  56.3416493   5.8341673  27.6722753  57.1506493
   5.9331673  28.0502753  55.8366493   5.7331673  27.5292753  56.3866493
  10.5111673  12.3382753  55.0516493   9.8741673  11.9382753  54.6096493
  10.5371673  11.9072753  55.8096493  10.4211673  12.2162753  55.0976493
   5.2101673  21.8462753  51.6646493   5.0551673  22.4562753  52.2686493
   5.7441673  21.2882753  52.0706493   5.2661673  21.8542753  51.8136493
   3.5941673  20.2462753  42.3226493   3.6531673  20.8962753  42.9016493
   3.4051673  19.5502753  42.8136493   3.5751673  20.2392753  42.4806493
   8.8201673  24.5752753  48.1916493   8.3411673  24.8732753  47.5256493
   8.4641673  23.7992753  48.3696493   8.6971673  24.5042753  48.1196493
   2.8171673  22.2932753  46.7536493   1.9701673  22.0992753  46.8346493
   3.1411673  22.1282753  47.5466493   2.7391673  22.2402753  46.8826493
  12.5121673  28.7412753  40.1316493  13.2061673  28.2742753  39.8836493
  11.9731673  28.1432753  40.4686493  12.5351673  28.5832753  40.1446493
   9.7511673  21.5172753  49.3106493   9.7441673  20.7412753  49.7086493
   8.9101673  21.7512753  49.3036493   9.6261673  21.4372753  49.3686493
  11.0071673  21.5882753  46.7476493  10.7211673  21.9892753  47.4676493
  11.8671673  21.5262753  46.8746493  11.0921673  21.6382753  46.8726493
   8.6691673  15.5122753  55.2876493   8.1441673  15.9712753  55.8116493
   8.3081673  14.7172753  55.2816493   8.5381673  15.4622753  55.3636493
  12.1381673  27.2212753  47.2766493  12.4281673  27.4782753  46.4956493
  12.8331673  27.3172753  47.7956493  12.2841673  27.2732753  47.2376493
   7.1611673  19.0812753  55.3636493   7.2341673  19.1852753  56.2266493
   6.5271673  19.6392753  55.1426493   7.0781673  19.1792753  55.4586493
   9.4291673  19.4002753  53.7286493   9.7481673  20.1862753  53.9316493
   9.0591673  19.1302753  54.4716493   9.4221673  19.4762753  53.8686493
   8.7431673  25.8242753  39.2586493   9.0771673  25.0182753  39.2936493
   7.9881673  25.7522753  39.6886493   8.6811673  25.6942753  39.3276493
   9.2251673  17.6582753  44.9176493   8.4801673  17.3352753  45.2356493
   9.2271673  18.4842753  45.1976493   9.1151673  17.7322753  45.0056493
  12.1271673  19.9422753  56.4636493  12.0751673  19.6012753  55.6626493
  12.8641673  20.4092753  56.4416493  12.2281673  19.9612753  56.3416493
  11.6651673  23.6182753  52.6696493  12.2931673  23.0692753  52.4136493
  11.6041673  24.1832753  52.0076493  11.7491673  23.6212753  52.5336493
   6.1171673  23.6992753  38.6616493   6.8011673  23.1852753  38.4926493
   5.7001673  23.7452753  37.8966493   6.1561673  23.6302753  38.5236493
   8.1371673  13.9882753  52.3786493   8.8811673  14.4402753  52.3156493
   7.5711673  14.4582753  51.9096493   8.1641673  14.1252753  52.3006493
   3.3151673  21.2722753  49.4566493   3.7911673  21.6462753  50.0846493
   2.4921673  21.4062753  49.7156493   3.2641673  21.3472753  49.5876493
   2.5791673  28.6652753  44.6846493   3.1251673  29.3442753  44.7386493
   2.2291673  28.7472753  43.8896493   2.6081673  28.7782753  44.5746493
   9.4221673  11.9682753  50.0486493   9.1421673  12.7932753  50.0046493
  10.1381673  12.0212753  50.5446493   9.4871673  12.0982753  50.1156493
   1.7771673  12.6832753  52.0776493   2.4821673  13.0032753  51.6756493
   2.0181673  11.8762753  52.3046493   1.9161673  12.6112753  52.0516493
   5.0711673  23.5272753  55.0626493   5.8281673  23.8132753  54.7366493
   4.5241673  23.5792753  54.3846493   5.1021673  23.5772753  54.9136493
   8.9801673  26.0772753  53.5666493   9.3261673  26.3472753  54.3206493
   9.2741673  26.6592753  52.9866493   9.0751673  26.2032753  53.5926493
  10.8431673  18.2232753  38.9056493  11.2211673  18.9002753  38.5056493
  10.0011673  18.4472753  38.9366493  10.7741673  18.3562753  38.8506493
   6.3021673  16.8382753  53.7306493   5.6541673  17.3082753  54.0786493
   6.8671673  16.7492753  54.3896493   6.2901673  16.8942753  53.8796493
   5.9901673  18.3752753  50.0286493   6.2921673  18.7952753  50.7316493
   6.0261673  17.5352753  50.2606493   6.0401673  18.3132753  50.1666493
   3.4151673  28.5422753  53.9536493   3.8931673  27.9422753  53.5376493
   3.0641673  28.0992753  54.6186493   3.4341673  28.3882753  53.9906493
   8.5381673  17.8222753  42.2806493   8.7451673  17.6212753  43.1046493
   9.2941673  18.0902753  41.9386493   8.6801673  17.8322753  42.3516493
   9.5601673  13.9052753  43.7546493   8.8461673  13.4342753  43.9256493
   9.3981673  14.2462753  42.9686493   9.4311673  13.8862753  43.6636493
  10.0031673  21.8492753  42.1346493  10.4791673  21.1202753  42.0866493
   9.1821673  21.5632753  42.0586493   9.9521673  21.6992753  42.1156493
   3.4741673  23.7612753  52.9736493   2.6791673  23.6972753  53.3246493
   3.5451673  24.6082753  52.7786493   3.3671673  23.8762753  52.9966493
   6.2191673  23.0162753  44.4896493   6.2951673  23.3572753  45.2886493
   6.3881673  22.1692753  44.6106493   6.2551673  22.9412753  44.6256493
   3.7411673  22.2902753  44.0546493   3.4431673  21.9752753  44.8116493
   4.4361673  22.7632753  44.2896493   3.8001673  22.3132753  44.2016493
   3.9631673  26.4082753  52.0816493   4.6501673  26.2942753  52.6066493
   4.0971673  27.1992753  51.7376493   4.0841673  26.5082753  52.1086493
  12.1391673  19.0172753  53.8926493  11.2841673  18.8952753  54.0186493
  12.2921673  18.6222753  53.1296493  12.0351673  18.9402753  53.7986493
   6.6521673  19.6822753  52.4686493   6.3971673  18.9632753  52.8906493
   7.4731673  19.7982753  52.7386493   6.7361673  19.5932753  52.5706493
   4.5861673  20.8722753  55.6556493   4.9091673  21.5582753  55.2236493
   3.8821673  21.1952753  56.0576493   4.5291673  21.0212753  55.6506493
   7.6701673  29.2462753  46.5846493   7.2191673  29.8892753  46.9636493
   8.3781673  29.1672753  47.0896493   7.7081673  29.3292753  46.7156493
   4.3711673  24.3362753  49.5146493   3.6771673  24.7382753  49.8576493
   5.0481673  24.7692753  49.8536493   4.3681673  24.4592753  49.6156493
   9.7481673  26.9292753  56.0946493  10.5241673  26.5392753  56.1776493
   9.2791673  26.5932753  56.7496493   9.7931673  26.8222753  56.2036493
  10.7731673  18.9622753  41.5766493  10.8761673  18.9042753  40.7126493
  11.5141673  18.6302753  41.8946493  10.8981673  18.9052753  41.4956493
   4.6931673  25.9272753  42.6836493   4.4881673  26.7602753  42.5246493
   3.9181673  25.5452753  42.8056493   4.5481673  25.9942753  42.6786493
   9.8751673  19.1082753  50.9326493   9.8731673  18.2452753  51.0566493
   9.9421673  19.4322753  51.7396493   9.8851673  19.0282753  51.0696493
   5.7541673  13.9082753  54.7146493   5.8461673  14.6202753  55.2086493
   5.1171673  13.4632753  55.1116493   5.6731673  13.9472753  54.8466493
   4.7481673  14.0982753  45.5686493   4.0481673  14.6162753  45.5126493
   4.7861673  13.7182753  44.7846493   4.6501673  14.1192753  45.4446493
   8.3461673  14.6142753  48.3686493   9.2011673  14.7132753  48.5136493
   7.9771673  15.1672753  48.9336493   8.4181673  14.7112753  48.4736493
   8.6501673  19.8942753  46.8596493   9.3161673  20.4352753  47.0196493
   8.3051673  20.2052753  46.1206493   8.6971673  20.0202753  46.7746493
   8.9631673  27.9602753  42.6666493   8.7891673  27.3062753  43.2166493
   9.6761673  27.6892753  42.2436493   9.0431673  27.8232753  42.6856493
  11.8211673  12.4522753  51.5246493  11.7691673  12.4082753  52.3946493
  12.5081673  11.9492753  51.3346493  11.9151673  12.3722753  51.6246493
   3.9061673  14.5652753  48.5696493   3.1691673  14.1112753  48.6826493
   4.4771673  14.1632753  49.0926493   3.8811673  14.4382753  48.6636493
   6.6381673  25.4132753  50.3576493   6.8441673  25.7142753  51.1496493
   6.5771673  26.1352753  49.8726493   6.6591673  25.5642753  50.4026493
   6.1721673  29.6272753  54.6036493   5.4191673  29.6092753  54.1626493
   6.3401673  30.4792753  54.6876493   6.0861673  29.7502753  54.5506493
  11.4501673  24.0522753  49.8156493  11.4181673  23.1902753  49.6806493
  10.7571673  24.3542753  49.3816493  11.3431673  23.9692753  49.7316493
   9.5551673  27.3122753  48.6126493  10.0821673  27.2292753  47.9216493
   9.1641673  26.5342753  48.6666493   9.5751673  27.1852753  48.5186493
   6.0691673  12.7562753  47.8206493   6.7391673  13.3002753  47.9476493
   5.5661673  13.1802753  47.2476493   6.0941673  12.8992753  47.7546493
   5.4281673  18.5642753  45.3136493   5.9791673  17.9572753  45.6136493
   5.0031673  18.8272753  46.0286493   5.4471673  18.5132753  45.4626493
   7.3981673  20.3952753  41.8756493   7.4661673  19.5452753  42.0566493
   6.5751673  20.4812753  41.5976493   7.2861673  20.2822753  41.8616493
  10.4771673  29.3502753  38.2936493  11.1141673  29.2162753  38.8746493
  10.1361673  28.5562753  38.1766493  10.5211673  29.2132753  38.3616493
  10.6721673  21.7682753  55.0266493  11.3061673  21.5982753  55.6006493
  11.0891673  22.1712753  54.3746493  10.8271673  21.8032753  55.0156493
   6.5521673  25.6152753  40.6156493   6.3011673  25.4872753  41.4416493
   6.2351673  24.9202753  40.1946493   6.4681673  25.4942753  40.6756493
  11.2971673  16.3322753  55.7646493  11.1011673  16.9762753  56.3196493
  10.5751673  15.8422753  55.7566493  11.1621673  16.3552753  55.8456493
  11.1961673  17.2732753  48.7356493  10.3631673  17.5232753  48.6636493
  11.1401673  16.4332753  48.9646493  11.0651673  17.1862753  48.7586493
   8.0831673  21.8792753  56.3816493   8.9541673  21.8432753  56.3456493
   7.8641673  22.2992753  55.6496493   8.1801673  21.9352753  56.2686493
   3.4381673  23.8232753  40.0456493   4.1551673  23.4762753  39.6896493
   3.4041673  24.6232753  39.6976493   3.5391673  23.8902753  39.9416493
   4.8471673  12.4642753  24.2844083   4.6021673  12.9522753  23.6044083
   5.7101673  12.3912753  24.1844083   4.9381673  12.5252753  24.1694083
   4.6561673  19.3802753  28.9554083   4.1321673  19.9762753  29.3184083
   5.0531673  19.0122753  29.6394083   4.6371673  19.4142753  29.1104083
  10.8001673  26.8212753  21.9264083  11.5011673  26.3022753  21.9224083
  10.2131673  26.3762753  21.4574083  10.8171673  26.6782753  21.8564083
   7.3271673  20.4472753  25.6314083   7.4071673  20.4512753  24.7624083
   6.7431673  19.8152753  25.7804083   7.2521673  20.3542753  25.5254083
   2.1161673  24.8572753  27.5014083   2.4641673  24.0582753  27.5314083
   2.7811673  25.3612753  27.2464083   2.2661673  24.8132753  27.4684083
   2.1731673  24.3062753  23.7124083   2.5041673  23.6622753  24.1984083
   2.4131673  24.0952753  22.9014083   2.2571673  24.1802753  23.6644083
   4.1411673  18.4372753  35.0514083   3.2931673  18.3382753  34.8734083
   4.1701673  19.1822753  35.5054083   4.0201673  18.5332753  35.0924083
   8.6991673  11.3972753  34.1654083   8.5411673  12.1662753  33.7834083
   7.9271673  11.1772753  34.5094083   8.5611673  11.4782753  34.1604083
   6.1611673  16.0382753  18.6794083   5.7111673  16.7192753  18.9864083
   6.2751673  15.5342753  19.3824083   6.1121673  16.0642753  18.8284083
   6.2601673  28.3792753  20.7834083   6.9871673  28.8512753  20.8854083
   6.4891673  27.5852753  21.0634083   6.4021673  28.3322753  20.8404083
   4.4281673  28.7712753  22.7734083   4.6421673  29.2982753  23.4354083
   5.1951673  28.5972753  22.3944083   4.5731673  28.8232753  22.8154083
  11.5551673  16.0112753  24.9744083  11.2091673  16.6892753  25.4004083
  10.9191673  15.4132753  24.9904083  11.4101673  16.0232753  25.0394083
   6.8671673  28.7812753  31.0784083   7.6111673  29.2372753  31.0684083
   6.7461673  28.5672753  30.2414083   6.9591673  28.8172753  30.9534083
   3.0841673  12.7272753  35.8224083   3.2621673  11.9182753  35.5474083
   2.9411673  13.1682753  35.0834083   3.0891673  12.6732753  35.6724083
   3.6781673  17.6532753  24.5954083   3.9651673  17.4212753  23.8054083
   4.4101673  17.7322753  25.0644083   3.8281673  17.6302753  24.5484083
   4.4001673  17.9922753  19.7164083   4.6811673  18.7802753  19.9654083
   3.6241673  18.1572753  19.3534083   4.3271673  18.1332753  19.6994083
   8.4411673  29.9662753  21.1834083   9.1061673  29.8182753  20.6384083
   8.8011673  29.8832753  21.9734083   8.5931673  29.9322753  21.2194083
  11.2301673  14.3342753  30.3434083  11.9871673  14.4062753  29.9154083
  11.2931673  13.5612753  30.7424083  11.3511673  14.2312753  30.3384083
   6.1211673  25.9662753  34.7824083   6.0871673  26.3482753  35.5664083
   6.9751673  25.9242753  34.6114083   6.2421673  26.0162753  34.8734083
   3.2591673  26.1632753  19.5324083   3.0781673  26.7082753  20.1894083
   4.0251673  26.4532753  19.2314083   3.3451673  26.2872753  19.5854083
   6.7661673  14.0592753  20.5864083   7.3061673  13.3772753  20.6624083
   6.8281673  14.4572753  21.3604083   6.8551673  14.0172753  20.7124083
   4.0241673  16.4352753  21.9004083   3.5161673  15.7732753  21.6464083
   4.0761673  16.9392753  21.1904083   3.9571673  16.4122753  21.7584083
   4.5731673  29.1302753  32.2804083   5.3411673  29.0502753  31.8744083
   3.9901673  29.0092753  31.6424083   4.6001673  29.1002753  32.1264083
   4.0241673  13.3762753  21.7914083   3.5691673  12.9742753  21.1654083
   4.7971673  13.5312753  21.4164083   4.0711673  13.3402753  21.6434083
  10.8501673  29.7332753  25.1814083  10.3951673  30.4502753  25.3824083
  10.2361673  29.1622753  24.9394083  10.6921673  29.7552753  25.1754083
   2.6221673  15.7432753  26.3134083   2.6961673  16.3112753  25.6554083
   2.7431673  16.2352753  27.0234083   2.6501673  15.9002753  26.3214083
   7.8471673  25.5782753  24.7254083   8.5481673  25.0962753  24.9144083
   7.1871673  25.0092753  24.7704083   7.8531673  25.4232753  24.7594083
   6.4141673  15.9132753  32.2014083   6.3191673  16.2322753  33.0074083
   5.8211673  15.2742753  32.1634083   6.3121673  15.8652753  32.3154083
   7.1131673  22.6322753  30.4064083   6.5991673  22.2202753  30.9774083
   6.9871673  23.4762753  30.5874083   7.0191673  22.6962753  30.5174083
   7.6701673  11.8572753  25.0374083   7.7191673  11.5392753  25.8484083
   7.9931673  11.2132753  24.5444083   7.7251673  11.7152753  25.0844083
  10.1341673  16.0932753  33.3454083  10.9061673  15.8682753  33.6824083
   9.6591673  16.3102753  34.0454083  10.1781673  16.0922753  33.4984083
  10.3661673  23.0712753  20.5334083  10.4851673  22.7842753  21.3484083
  11.1731673  23.0922753  20.2034083  10.5021673  23.0322753  20.6054083
  12.6001673  27.5802753  34.7874083  11.9181673  27.8902753  34.3404083
  12.2311673  27.1222753  35.4324083  12.4441673  27.5582753  34.8164083
   8.2611673  19.6082753  20.1184083   8.0411673  20.3392753  19.6964083
   7.8131673  19.6592753  20.8654083   8.1621673  19.7232753  20.1664083
  12.4481673  14.4692753  19.5714083  11.7861673  13.9012753  19.5944083
  12.2551673  14.9812753  18.8914083  12.3221673  14.4612753  19.4744083
  12.7711673  18.8472753  32.1274083  12.9861673  18.0472753  31.8514083
  11.9211673  18.9072753  31.9384083  12.6771673  18.7382753  32.0584083
  10.4501673  14.0272753  21.8504083  11.1961673  13.6202753  22.0494083
  10.7131673  14.7422753  21.4254083  10.5991673  14.0732753  21.8174083
   4.3931673  26.5132753  26.4264083   3.8701673  27.1472753  26.1334083
   4.7031673  26.1492753  25.6974083   4.3611673  26.5532753  26.2754083
   6.9041673  16.3152753  26.9234083   7.2481673  16.4672753  27.7104083
   6.4511673  15.5772753  27.0364083   6.8881673  16.2282753  27.0564083
  10.4341673  27.9622753  32.8774083   9.7631673  28.4762753  33.0954083
  10.4971673  28.0622753  32.0134083  10.3441673  28.0532753  32.7824083
   8.2251673  17.6472753  29.4774083   7.5631673  17.9752753  29.9404083
   8.4121673  18.2812753  28.9084083   8.1551673  17.7892753  29.4614083
   2.4301673  28.7112753  30.4734083   2.1531673  28.0702753  29.9504083
   2.2221673  29.4372753  30.0354083   2.3591673  28.7242753  30.3314083
   4.8701673  13.5532753  32.9064083   5.0191673  12.7282753  32.6634083
   5.2491673  13.6082753  33.6904083   4.9481673  13.4392753  32.9864083
   6.4181673  15.6162753  22.9884083   6.9081673  16.3332753  22.9114083
   5.6281673  15.8772753  22.7254083   6.3741673  15.7602753  22.9384083
   7.7321673  23.4942753  34.8984083   8.2161673  24.2122753  34.9964083
   8.1261673  23.0672753  34.2474083   7.8621673  23.5372753  34.8164083
   3.0001673  17.0862753  28.7134083   3.4801673  17.7852753  28.9214083
   3.3731673  16.4392753  29.1644083   3.1261673  17.0942753  28.8104083
   5.1891673  20.2552753  20.9874083   5.1811673  20.9772753  20.4974083
   4.5501673  20.3902753  21.5644083   5.0941673  20.3822753  21.0004083
  10.1611673  24.1252753  24.9684083  10.5171673  23.7752753  25.6834083
  10.1531673  23.4642753  24.3984083  10.2131673  23.9752753  24.9894083
   6.2061673  27.1912753  28.8124083   5.6031673  26.8952753  28.2554083
   6.7511673  27.6432753  28.3034083   6.1971673  27.2142753  28.6544083
   6.2191673  24.0422753  28.2124083   5.4221673  24.2662753  28.4864083
   6.4771673  23.4482753  28.7974083   6.1391673  23.9872753  28.3394083
   2.4031673  28.3702753  21.0624083   3.0251673  28.5332753  21.6524083
   2.4391673  29.0612753  20.5304083   2.5001673  28.4962753  21.0714083
   9.4791673  22.0402753  33.0584083   9.5341673  22.1652753  32.1964083
  10.2321673  22.3602753  33.3604083   9.5981673  22.1052753  32.9754083
   5.6701673  27.3892753  37.3354083   5.8341673  27.6722753  38.1444083
   5.9331673  28.0502753  36.8304083   5.7331673  27.5292753  37.3804083
  10.5111673  12.3382753  36.0454083   9.8741673  11.9382753  35.6034083
  10.5371673  11.9072753  36.8034083  10.4211673  12.2162753  36.0914083
   5.2101673  21.8462753  32.6584083   5.0551673  22.4562753  33.2624083
   5.7441673  21.2882753  33.0644083   5.2661673  21.8542753  32.8074083
   3.5941673  20.2462753  23.3164083   3.6531673  20.8962753  23.8954083
   3.4051673  19.5502753  23.8074083   3.5751673  20.2392753  23.4744083
   8.8201673  24.5752753  29.1854083   8.3411673  24.8732753  28.5194083
   8.4641673  23.7992753  29.3634083   8.6971673  24.5042753  29.1134083
   2.8171673  22.2932753  27.7474083   1.9701673  22.0992753  27.8284083
   3.1411673  22.1282753  28.5404083   2.7391673  22.2402753  27.8764083
  12.5121673  28.7412753  21.1254083  13.2061673  28.2742753  20.8774083
  11.9731673  28.1432753  21.4624083  12.5351673  28.5832753  21.1384083
   9.7511673  21.5172753  30.3044083   9.7441673  20.7412753  30.7024083
   8.9101673  21.7512753  30.2974083   9.6261673  21.4372753  30.3624083
  11.0071673  21.5882753  27.7414083  10.7211673  21.9892753  28.4614083
  11.8671673  21.5262753  27.8684083  11.0921673  21.6382753  27.8664083
   8.6691673  15.5122753  36.2814083   8.1441673  15.9712753  36.8054083
   8.3081673  14.7172753  36.2754083   8.5381673  15.4622753  36.3574083
  12.1381673  27.2212753  28.2704083  12.4281673  27.4782753  27.4894083
  12.8331673  27.3172753  28.7894083  12.2841673  27.2732753  28.2314083
   7.1611673  19.0812753  36.3574083   7.2341673  19.1852753  37.2204083
   6.5271673  19.6392753  36.1364083   7.0781673  19.1792753  36.4524083
   9.4291673  19.4002753  34.7224083   9.7481673  20.1862753  34.9254083
   9.0591673  19.1302753  35.4654083   9.4221673  19.4762753  34.8624083
   8.7431673  25.8242753  20.2524083   9.0771673  25.0182753  20.2874083
   7.9881673  25.7522753  20.6824083   8.6811673  25.6942753  20.3214083
   9.2251673  17.6582753  25.9114083   8.4801673  17.3352753  26.2294083
   9.2271673  18.4842753  26.1914083   9.1151673  17.7322753  25.9994083
  12.1271673  19.9422753  37.4574083  12.0751673  19.6012753  36.6564083
  12.8641673  20.4092753  37.4354083  12.2281673  19.9612753  37.3354083
  11.6651673  23.6182753  33.6634083  12.2931673  23.0692753  33.4074083
  11.6041673  24.1832753  33.0014083  11.7491673  23.6212753  33.5274083
   6.1171673  23.6992753  19.6554083   6.8011673  23.1852753  19.4864083
   5.7001673  23.7452753  18.8904083   6.1561673  23.6302753  19.5174083
   8.1371673  13.9882753  33.3724083   8.8811673  14.4402753  33.3094083
   7.5711673  14.4582753  32.9034083   8.1641673  14.1252753  33.2944083
   3.3151673  21.2722753  30.4504083   3.7911673  21.6462753  31.0784083
   2.4921673  21.4062753  30.7094083   3.2641673  21.3472753  30.5814083
   2.5791673  28.6652753  25.6784083   3.1251673  29.3442753  25.7324083
   2.2291673  28.7472753  24.8834083   2.6081673  28.7782753  25.5684083
   9.4221673  11.9682753  31.0424083   9.1421673  12.7932753  30.9984083
  10.1381673  12.0212753  31.5384083   9.4871673  12.0982753  31.1094083
   1.7771673  12.6832753  33.0714083   2.4821673  13.0032753  32.6694083
   2.0181673  11.8762753  33.2984083   1.9161673  12.6112753  33.0454083
   5.0711673  23.5272753  36.0564083   5.8281673  23.8132753  35.7304083
   4.5241673  23.5792753  35.3784083   5.1021673  23.5772753  35.9074083
   8.9801673  26.0772753  34.5604083   9.3261673  26.3472753  35.3144083
   9.2741673  26.6592753  33.9804083   9.0751673  26.2032753  34.5864083
  10.8431673  18.2232753  19.8994083  11.2211673  18.9002753  19.4994083
  10.0011673  18.4472753  19.9304083  10.7741673  18.3562753  19.8444083
   6.3021673  16.8382753  34.7244083   5.6541673  17.3082753  35.0724083
   6.8671673  16.7492753  35.3834083   6.2901673  16.8942753  34.8734083
   5.9901673  18.3752753  31.0224083   6.2921673  18.7952753  31.7254083
   6.0261673  17.5352753  31.2544083   6.0401673  18.3132753  31.1604083
   3.4151673  28.5422753  34.9474083   3.8931673  27.9422753  34.5314083
   3.0641673  28.0992753  35.6124083   3.4341673  28.3882753  34.9844083
   8.5381673  17.8222753  23.2744083   8.7451673  17.6212753  24.0984083
   9.2941673  18.0902753  22.9324083   8.6801673  17.8322753  23.3454083
   9.5601673  13.9052753  24.7484083   8.8461673  13.4342753  24.9194083
   9.3981673  14.2462753  23.9624083   9.4311673  13.8862753  24.6574083
  10.0031673  21.8492753  23.1284083  10.4791673  21.1202753  23.0804083
   9.1821673  21.5632753  23.0524083   9.9521673  21.6992753  23.1094083
   3.4741673  23.7612753  33.9674083   2.6791673  23.6972753  34.3184083
   3.5451673  24.6082753  33.7724083   3.3671673  23.8762753  33.9904083
   6.2191673  23.0162753  25.4834083   6.2951673  23.3572753  26.2824083
   6.3881673  22.1692753  25.6044083   6.2551673  22.9412753  25.6194083
   3.7411673  22.2902753  25.0484083   3.4431673  21.9752753  25.8054083
   4.4361673  22.7632753  25.2834083   3.8001673  22.3132753  25.1954083
   3.9631673  26.4082753  33.0754083   4.6501673  26.2942753  33.6004083
   4.0971673  27.1992753  32.7314083   4.0841673  26.5082753  33.1024083
  12.1391673  19.0172753  34.8864083  11.2841673  18.8952753  35.0124083
  12.2921673  18.6222753  34.1234083  12.0351673  18.9402753  34.7924083
   6.6521673  19.6822753  33.4624083   6.3971673  18.9632753  33.8844083
   7.4731673  19.7982753  33.7324083   6.7361673  19.5932753  33.5644083
   4.5861673  20.8722753  36.6494083   4.9091673  21.5582753  36.2174083
   3.8821673  21.1952753  37.0514083   4.5291673  21.0212753  36.6444083
   7.6701673  29.2462753  27.5784083   7.2191673  29.8892753  27.9574083
   8.3781673  29.1672753  28.0834083   7.7081673  29.3292753  27.7094083
   4.3711673  24.3362753  30.5084083   3.6771673  24.7382753  30.8514083
   5.0481673  24.7692753  30.8474083   4.3681673  24.4592753  30.6094083
   9.7481673  26.9292753  37.0884083  10.5241673  26.5392753  37.1714083
   9.2791673  26.5932753  37.7434083   9.7931673  26.8222753  37.1974083
  10.7731673  18.9622753  22.5704083  10.8761673  18.9042753  21.7064083
  11.5141673  18.6302753  22.8884083  10.8981673  18.9052753  22.4894083
   4.6931673  25.9272753  23.6774083   4.4881673  26.7602753  23.5184083
   3.9181673  25.5452753  23.7994083   4.5481673  25.9942753  23.6724083
   9.8751673  19.1082753  31.9264083   9.8731673  18.2452753  32.0504083
   9.9421673  19.4322753  32.7334083   9.8851673  19.0282753  32.0634083
   5.7541673  13.9082753  35.7084083   5.8461673  14.6202753  36.2024083
   5.1171673  13.4632753  36.1054083   5.6731673  13.9472753  35.8404083
   4.7481673  14.0982753  26.5624083   4.0481673  14.6162753  26.5064083
   4.7861673  13.7182753  25.7784083   4.6501673  14.1192753  26.4384083
   8.3461673  14.6142753  29.3624083   9.2011673  14.7132753  29.5074083
   7.9771673  15.1672753  29.9274083   8.4181673  14.7112753  29.4674083
   8.6501673  19.8942753  27.8534083   9.3161673  20.4352753  28.0134083
   8.3051673  20.2052753  27.1144083   8.6971673  20.0202753  27.7684083
   8.9631673  27.9602753  23.6604083   8.7891673  27.3062753  24.2104083
   9.6761673  27.6892753  23.2374083   9.0431673  27.8232753  23.6794083
  11.8211673  12.4522753  32.5184083  11.7691673  12.4082753  33.3884083
  12.5081673  11.9492753  32.3284083  11.9151673  12.3722753  32.6184083
   3.9061673  14.5652753  29.5634083   3.1691673  14.1112753  29.6764083
   4.4771673  14.1632753  30.0864083   3.8811673  14.4382753  29.6574083
   6.6381673  25.4132753  31.3514083   6.8441673  25.7142753  32.1434083
   6.5771673  26.1352753  30.8664083   6.6591673  25.5642753  31.3964083
   6.1721673  29.6272753  35.5974083   5.4191673  29.6092753  35.1564083
   6.3401673  30.4792753  35.6814083   6.0861673  29.7502753  35.5444083
  11.4501673  24.0522753  30.8094083  11.4181673  23.1902753  30.6744083
  10.7571673  24.3542753  30.3754083  11.3431673  23.9692753  30.7254083
   9.5551673  27.3122753  29.6064083  10.0821673  27.2292753  28.9154083
   9.1641673  26.5342753  29.6604083   9.5751673  27.1852753  29.5124083
   6.0691673  12.7562753  28.8144083   6.7391673  13.3002753  28.9414083
   5.5661673  13.1802753  28.2414083   6.0941673  12.8992753  28.7484083
   5.4281673  18.5642753  26.3074083   5.9791673  17.9572753  26.6074083
   5.0031673  18.8272753  27.0224083   5.4471673  18.5132753  26.4564083
   7.3981673  20.3952753  22.8694083   7.4661673  19.5452753  23.0504083
   6.5751673  20.4812753  22.5914083   7.2861673  20.2822753  22.8554083
  10.4771673  29.3502753  19.2874083  11.1141673  29.2162753  19.8684083
  10.1361673  28.5562753  19.1704083  10.5211673  29.2132753  19.3554083
  10.6721673  21.7682753  36.0204083  11.3061673  21.5982753  36.5944083
  11.0891673  22.1712753  35.3684083  10.8271673  21.8032753  36.0094083
   6.5521673  25.6152753  21.6094083   6.3011673  25.4872753  22.4354083
   6.2351673  24.9202753  21.1884083   6.4681673  25.4942753  21.6694083
  11.2971673  16.3322753  36.7584083  11.1011673  16.9762753  37.3134083
  10.5751673  15.8422753  36.7504083  11.1621673  16.3552753  36.8394083
  11.1961673  17.2732753  29.7294083  10.3631673  17.5232753  29.6574083
  11.1401673  16.4332753  29.9584083  11.0651673  17.1862753  29.7524083
   8.0831673  21.8792753  37.3754083   8.9541673  21.8432753  37.3394083
   7.8641673  22.2992753  36.6434083   8.1801673  21.9352753  37.2624083
   3.4381673  23.8232753  21.0394083   4.1551673  23.4762753  20.6834083
   3.4041673  24.6232753  20.6914083   3.5391673  23.8902753  20.9354083
   4.8471673  12.4642753   5.2781673   4.6021673  12.9522753   4.5981673
   5.7101673  12.3912753   5.1781673   4.9381673  12.5252753   5.1631673
   4.6561673  19.3802753   9.9491673   4.1321673  19.9762753  10.3121673
   5.0531673  19.0122753  10.6331673   4.6371673  19.4142753  10.1041673
  10.8001673  26.8212753   2.9201673  11.5011673  26.3022753   2.9161673
  10.2131673  26.3762753   2.4511673  10.8171673  26.6782753   2.8501673
   7.3271673  20.4472753   6.6251673   7.4071673  20.4512753   5.7561673
   6.7431673  19.8152753   6.7741673   7.2521673  20.3542753   6.5191673
   2.1161673  24.8572753   8.4951673   2.4641673  24.0582753   8.5251673
   2.7811673  25.3612753   8.2401673   2.2661673  24.8132753   8.4621673
   2.1731673  24.3062753   4.7061673   2.5041673  23.6622753   5.1921673
   2.4131673  24.0952753   3.8951673   2.2571673  24.1802753   4.6581673
   4.1411673  18.4372753  16.0451673   3.2931673  18.3382753  15.8671673
   4.1701673  19.1822753  16.4991673   4.0201673  18.5332753  16.0861673
   8.6991673  11.3972753  15.1591673   8.5411673  12.1662753  14.7771673
   7.9271673  11.1772753  15.5031673   8.5611673  11.4782753  15.1541673
   6.2601673  28.3792753   1.7771673   6.9871673  28.8512753   1.8791673
   6.4891673  27.5852753   2.0571673   6.4021673  28.3322753   1.8341673
   4.4281673  28.7712753   3.7671673   4.6421673  29.2982753   4.4291673
   5.1951673  28.5972753   3.3881673   4.5731673  28.8232753   3.8091673
  11.5551673  16.0112753   5.9681673  11.2091673  16.6892753   6.3941673
  10.9191673  15.4132753   5.9841673  11.4101673  16.0232753   6.0331673
   6.8671673  28.7812753  12.0721673   7.6111673  29.2372753  12.0621673
   6.7461673  28.5672753  11.2351673   6.9591673  28.8172753  11.9471673
   3.0841673  12.7272753  16.8161673   3.2621673  11.9182753  16.5411673
   2.9411673  13.1682753  16.0771673   3.0891673  12.6732753  16.6661673
   3.6781673  17.6532753   5.5891673   3.9651673  17.4212753   4.7991673
   4.4101673  17.7322753   6.0581673   3.8281673  17.6302753   5.5421673
   8.4411673  29.9662753   2.1771673   9.1061673  29.8182753   1.6321673
   8.8011673  29.8832753   2.9671673   8.5931673  29.9322753   2.2131673
  11.2301673  14.3342753  11.3371673  11.9871673  14.4062753  10.9091673
  11.2931673  13.5612753  11.7361673  11.3511673  14.2312753  11.3321673
   6.1211673  25.9662753  15.7761673   6.0871673  26.3482753  16.5601673
   6.9751673  25.9242753  15.6051673   6.2421673  26.0162753  15.8671673
   4.0241673  16.4352753   2.8941673   3.5161673  15.7732753   2.6401673
   4.0761673  16.9392753   2.1841673   3.9571673  16.4122753   2.7521673
   4.5731673  29.1302753  13.2741673   5.3411673  29.0502753  12.8681673
   3.9901673  29.0092753  12.6361673   4.6001673  29.1002753  13.1201673
   4.0241673  13.3762753   2.7851673   3.5691673  12.9742753   2.1591673
   4.7971673  13.5312753   2.4101673   4.0711673  13.3402753   2.6371673
  10.8501673  29.7332753   6.1751673  10.3951673  30.4502753   6.3761673
  10.2361673  29.1622753   5.9331673  10.6921673  29.7552753   6.1691673
   2.6221673  15.7432753   7.3071673   2.6961673  16.3112753   6.6491673
   2.7431673  16.2352753   8.0171673   2.6501673  15.9002753   7.3151673
   7.8471673  25.5782753   5.7191673   8.5481673  25.0962753   5.9081673
   7.1871673  25.0092753   5.7641673   7.8531673  25.4232753   5.7531673
   6.4141673  15.9132753  13.1951673   6.3191673  16.2322753  14.0011673
   5.8211673  15.2742753  13.1571673   6.3121673  15.8652753  13.3091673
   7.1131673  22.6322753  11.4001673   6.5991673  22.2202753  11.9711673
   6.9871673  23.4762753  11.5811673   7.0191673  22.6962753  11.5111673
   7.6701673  11.8572753   6.0311673   7.7191673  11.5392753   6.8421673
   7.9931673  11.2132753   5.5381673   7.7251673  11.7152753   6.0781673
  10.1341673  16.0932753  14.3391673  10.9061673  15.8682753  14.6761673
   9.6591673  16.3102753  15.0391673  10.1781673  16.0922753  14.4921673
  12.6001673  27.5802753  15.7811673  11.9181673  27.8902753  15.3341673
  12.2311673  27.1222753  16.4261673  12.4441673  27.5582753  15.8101673
  12.7711673  18.8472753  13.1211673  12.9861673  18.0472753  12.8451673
  11.9211673  18.9072753  12.9321673  12.6771673  18.7382753  13.0521673
  10.4501673  14.0272753   2.8441673  11.1961673  13.6202753   3.0431673
  10.7131673  14.7422753   2.4191673  10.5991673  14.0732753   2.8111673
   4.3931673  26.5132753   7.4201673   3.8701673  27.1472753   7.1271673
   4.7031673  26.1492753   6.6911673   4.3611673  26.5532753   7.2691673
   6.9041673  16.3152753   7.9171673   7.2481673  16.4672753   8.7041673
   6.4511673  15.5772753   8.0301673   6.8881673  16.2282753   8.0501673
  10.4341673  27.9622753  13.8711673   9.7631673  28.4762753  14.0891673
  10.4971673  28.0622753  13.0071673  10.3441673  28.0532753  13.7761673
   8.2251673  17.6472753  10.4711673   7.5631673  17.9752753  10.9341673
   8.4121673  18.2812753   9.9021673   8.1551673  17.7892753  10.4551673
   2.4301673  28.7112753  11.4671673   2.1531673  28.0702753  10.9441673
   2.2221673  29.4372753  11.0291673   2.3591673  28.7242753  11.3251673
   4.8701673  13.5532753  13.9001673   5.0191673  12.7282753  13.6571673
   5.2491673  13.6082753  14.6841673   4.9481673  13.4392753  13.9801673
   6.4181673  15.6162753   3.9821673   6.9081673  16.3332753   3.9051673
   5.6281673  15.8772753   3.7191673   6.3741673  15.7602753   3.9321673
   7.7321673  23.4942753  15.8921673   8.2161673  24.2122753  15.9901673
   8.1261673  23.0672753  15.2411673   7.8621673  23.5372753  15.8101673
   3.0001673  17.0862753   9.7071673   3.4801673  17.7852753   9.9151673
   3.3731673  16.4392753  10.1581673   3.1261673  17.0942753   9.8041673
  10.1611673  24.1252753   5.9621673  10.5171673  23.7752753   6.6771673
  10.1531673  23.4642753   5.3921673  10.2131673  23.9752753   5.9831673
   6.2061673  27.1912753   9.8061673   5.6031673  26.8952753   9.2491673
   6.7511673  27.6432753   9.2971673   6.1971673  27.2142753   9.6481673
   6.2191673  24.0422753   9.2061673   5.4221673  24.2662753   9.4801673
   6.4771673  23.4482753   9.7911673   6.1391673  23.9872753   9.3331673
   9.4791673  22.0402753  14.0521673   9.5341673  22.1652753  13.1901673
  10.2321673  22.3602753  14.3541673   9.5981673  22.1052753  13.9691673
   5.6701673  27.3892753  18.3291673   5.8341673  27.6722753  19.1381673
   5.9331673  28.0502753  17.8241673   5.7331673  27.5292753  18.3741673
  10.5111673  12.3382753  17.0391673   9.8741673  11.9382753  16.5971673
  10.5371673  11.9072753  17.7971673  10.4211673  12.2162753  17.0851673
   5.2101673  21.8462753  13.6521673   5.0551673  22.4562753  14.2561673
   5.7441673  21.2882753  14.0581673   5.2661673  21.8542753  13.8011673
   3.5941673  20.2462753   4.3101673   3.6531673  20.8962753   4.8891673
   3.4051673  19.5502753   4.8011673   3.5751673  20.2392753   4.4681673
   8.8201673  24.5752753  10.1791673   8.3411673  24.8732753   9.5131673
   8.4641673  23.7992753  10.3571673   8.6971673  24.5042753  10.1071673
   2.8171673  22.2932753   8.7411673   1.9701673  22.0992753   8.8221673
   3.1411673  22.1282753   9.5341673   2.7391673  22.2402753   8.8701673
  12.5121673  28.7412753   2.1191673  13.2061673  28.2742753   1.8711673
  11.9731673  28.1432753   2.4561673  12.5351673  28.5832753   2.1321673
   9.7511673  21.5172753  11.2981673   9.7441673  20.7412753  11.6961673
   8.9101673  21.7512753  11.2911673   9.6261673  21.4372753  11.3561673
  11.0071673  21.5882753   8.7351673  10.7211673  21.9892753   9.4551673
  11.8671673  21.5262753   8.8621673  11.0921673  21.6382753   8.8601673
   8.6691673  15.5122753  17.2751673   8.1441673  15.9712753  17.7991673
   8.3081673  14.7172753  17.2691673   8.5381673  15.4622753  17.3511673
  12.1381673  27.2212753   9.2641673  12.4281673  27.4782753   8.4831673
  12.8331673  27.3172753   9.7831673  12.2841673  27.2732753   9.2251673
   7.1611673  19.0812753  17.3511673   7.2341673  19.1852753  18.2141673
   6.5271673  19.6392753  17.1301673   7.0781673  19.1792753  17.4461673
   9.4291673  19.4002753  15.7161673   9.7481673  20.1862753  15.9191673
   9.0591673  19.1302753  16.4591673   9.4221673  19.4762753  15.8561673
   9.2251673  17.6582753   6.9051673   8.4801673  17.3352753   7.2231673
   9.2271673  18.4842753   7.1851673   9.1151673  17.7322753   6.9931673
  12.1271673  19.9422753  18.4511673  12.0751673  19.6012753  17.6501673
  12.8641673  20.4092753  18.4291673  12.2281673  19.9612753  18.3291673
  11.6651673  23.6182753  14.6571673  12.2931673  23.0692753  14.4011673
  11.6041673  24.1832753  13.9951673  11.7491673  23.6212753  14.5211673
   8.1371673  13.9882753  14.3661673   8.8811673  14.4402753  14.3031673
   7.5711673  14.4582753  13.8971673   8.1641673  14.1252753  14.2881673
   3.3151673  21.2722753  11.4441673   3.7911673  21.6462753  12.0721673
   2.4921673  21.4062753  11.7031673   3.2641673  21.3472753  11.5751673
   2.5791673  28.6652753   6.6721673   3.1251673  29.3442753   6.7261673
   2.2291673  28.7472753   5.8771673   2.6081673  28.7782753   6.5621673
   9.4221673  11.9682753  12.0361673   9.1421673  12.7932753  11.9921673
  10.1381673  12.0212753  12.5321673   9.4871673  12.0982753  12.1031673
   1.7771673  12.6832753  14.0651673   2.4821673  13.0032753  13.6631673
   2.0181673  11.8762753  14.2921673   1.9161673  12.6112753  14.0391673
   5.0711673  23.5272753  17.0501673   5.8281673  23.8132753  16.7241673
   4.5241673  23.5792753  16.3721673   5.1021673  23.5772753  16.9011673
   8.9801673  26.0772753  15.5541673   9.3261673  26.3472753  16.3081673
   9.2741673  26.6592753  14.9741673   9.0751673  26.2032753  15.5801673
   6.3021673  16.8382753  15.7181673   5.6541673  17.3082753  16.0661673
   6.8671673  16.7492753  16.3771673   6.2901673  16.8942753  15.8671673
   5.9901673  18.3752753  12.0161673   6.2921673  18.7952753  12.7191673
   6.0261673  17.5352753  12.2481673   6.0401673  18.3132753  12.1541673
   3.4151673  28.5422753  15.9411673   3.8931673  27.9422753  15.5251673
   3.0641673  28.0992753  16.6061673   3.4341673  28.3882753  15.9781673
   8.5381673  17.8222753   4.2681673   8.7451673  17.6212753   5.0921673
   9.2941673  18.0902753   3.9261673   8.6801673  17.8322753   4.3391673
   9.5601673  13.9052753   5.7421673   8.8461673  13.4342753   5.9131673
   9.3981673  14.2462753   4.9561673   9.4311673  13.8862753   5.6511673
  10.0031673  21.8492753   4.1221673  10.4791673  21.1202753   4.0741673
   9.1821673  21.5632753   4.0461673   9.9521673  21.6992753   4.1031673
   3.4741673  23.7612753  14.9611673   2.6791673  23.6972753  15.3121673
   3.5451673  24.6082753  14.7661673   3.3671673  23.8762753  14.9841673
   6.2191673  23.0162753   6.4771673   6.2951673  23.3572753   7.2761673
   6.3881673  22.1692753   6.5981673   6.2551673  22.9412753   6.6131673
   3.7411673  22.2902753   6.0421673   3.4431673  21.9752753   6.7991673
   4.4361673  22.7632753   6.2771673   3.8001673  22.3132753   6.1891673
   3.9631673  26.4082753  14.0691673   4.6501673  26.2942753  14.5941673
   4.0971673  27.1992753  13.7251673   4.0841673  26.5082753  14.0961673
  12.1391673  19.0172753  15.8801673  11.2841673  18.8952753  16.0061673
  12.2921673  18.6222753  15.1171673  12.0351673  18.9402753  15.7861673
   6.6521673  19.6822753  14.4561673   6.3971673  18.9632753  14.8781673
   7.4731673  19.7982753  14.7261673   6.7361673  19.5932753  14.5581673
   4.5861673  20.8722753  17.6431673   4.9091673  21.5582753  17.2111673
   3.8821673  21.1952753  18.0451673   4.5291673  21.0212753  17.6381673
   7.6701673  29.2462753   8.5721673   7.2191673  29.8892753   8.9511673
   8.3781673  29.1672753   9.0771673   7.7081673  29.3292753   8.7031673
   4.3711673  24.3362753  11.5021673   3.6771673  24.7382753  11.8451673
   5.0481673  24.7692753  11.8411673   4.3681673  24.4592753  11.6031673
   9.7481673  26.9292753  18.0821673  10.5241673  26.5392753  18.1651673
   9.2791673  26.5932753  18.7371673   9.7931673  26.8222753  18.1911673
  10.7731673  18.9622753   3.5641673  10.8761673  18.9042753   2.7001673
  11.5141673  18.6302753   3.8821673  10.8981673  18.9052753   3.4831673
   4.6931673  25.9272753   4.6711673   4.4881673  26.7602753   4.5121673
   3.9181673  25.5452753   4.7931673   4.5481673  25.9942753   4.6661673
   9.8751673  19.1082753  12.9201673   9.8731673  18.2452753  13.0441673
   9.9421673  19.4322753  13.7271673   9.8851673  19.0282753  13.0571673
   5.7541673  13.9082753  16.7021673   5.8461673  14.6202753  17.1961673
   5.1171673  13.4632753  17.0991673   5.6731673  13.9472753  16.8341673
   4.7481673  14.0982753   7.5561673   4.0481673  14.6162753   7.5001673
   4.7861673  13.7182753   6.7721673   4.6501673  14.1192753   7.4321673
   8.3461673  14.6142753  10.3561673   9.2011673  14.7132753  10.5011673
   7.9771673  15.1672753  10.9211673   8.4181673  14.7112753  10.4611673
   8.6501673  19.8942753   8.8471673   9.3161673  20.4352753   9.0071673
   8.3051673  20.2052753   8.1081673   8.6971673  20.0202753   8.7621673
   8.9631673  27.9602753   4.6541673   8.7891673  27.3062753   5.2041673
   9.6761673  27.6892753   4.2311673   9.0431673  27.8232753   4.6731673
  11.8211673  12.4522753  13.5121673  11.7691673  12.4082753  14.3821673
  12.5081673  11.9492753  13.3221673  11.9151673  12.3722753  13.6121673
   3.9061673  14.5652753  10.5571673   3.1691673  14.1112753  10.6701673
   4.4771673  14.1632753  11.0801673   3.8811673  14.4382753  10.6511673
   6.6381673  25.4132753  12.3451673   6.8441673  25.7142753  13.1371673
   6.5771673  26.1352753  11.8601673   6.6591673  25.5642753  12.3901673
   6.1721673  29.6272753  16.5911673   5.4191673  29.6092753  16.1501673
   6.3401673  30.4792753  16.6751673   6.0861673  29.7502753  16.5381673
  11.4501673  24.0522753  11.8031673  11.4181673  23.1902753  11.6681673
  10.7571673  24.3542753  11.3691673  11.3431673  23.9692753  11.7191673
   9.5551673  27.3122753  10.6001673  10.0821673  27.2292753   9.9091673
   9.1641673  26.5342753  10.6541673   9.5751673  27.1852753  10.5061673
   6.0691673  12.7562753   9.8081673   6.7391673  13.3002753   9.9351673
   5.5661673  13.1802753   9.2351673   6.0941673  12.8992753   9.7421673
   5.4281673  18.5642753   7.3011673   5.9791673  17.9572753   7.6011673
   5.0031673  18.8272753   8.0161673   5.4471673  18.5132753   7.4501673
   7.3981673  20.3952753   3.8631673   7.4661673  19.5452753   4.0441673
   6.5751673  20.4812753   3.5851673   7.2861673  20.2822753   3.8491673
  10.6721673  21.7682753  17.0141673  11.3061673  21.5982753  17.5881673
  11.0891673  22.1712753  16.3621673  10.8271673  21.8032753  17.0031673
   6.5521673  25.6152753   2.6031673   6.3011673  25.4872753   3.4291673
   6.2351673  24.9202753   2.1821673   6.4681673  25.4942753   2.6631673
  11.2971673  16.3322753  17.7521673  11.1011673  16.9762753  18.3071673
  10.5751673  15.8422753  17.7441673  11.1621673  16.3552753  17.8331673
  11.1961673  17.2732753  10.7231673  10.3631673  17.5232753  10.6511673
  11.1401673  16.4332753  10.9521673  11.0651673  17.1862753  10.7461673
   8.0831673  21.8792753  18.3691673   8.9541673  21.8432753  18.3331673
   7.8641673  22.2992753  17.6371673   8.1801673  21.9352753  18.2561673
   3.4381673  23.8232753   2.0331673   4.1551673  23.4762753   1.6771673
   3.4041673  24.6232753   1.6851673   3.5391673  23.8902753   1.9291673
  10.8001673   8.3431673  78.9451313  11.5011673   7.8241673  78.9411313
  10.2131673   7.8981673  78.4761313  10.8171673   8.2001673  78.8751313
   2.1161673   6.3791673  84.5201313   2.4641673   5.5801673  84.5501313
   2.7811673   6.8831673  84.2651313   2.2661673   6.3351673  84.4871313
   2.1731673   5.8281673  80.7311313   2.5041673   5.1841673  81.2171313
   2.4131673   5.6171673  79.9201313   2.2571673   5.7021673  80.6831313
   6.2601673   9.9011673  77.8021313   6.9871673  10.3731673  77.9041313
   6.4891673   9.1071673  78.0821313   6.4021673   9.8541673  77.8591313
   4.4281673  10.2931673  79.7921313   4.6421673  10.8201673  80.4541313
   5.1951673  10.1191673  79.4131313   4.5731673  10.3451673  79.8341313
   6.8671673  10.3031673  88.0971313   7.6111673  10.7591673  88.0871313
   6.7461673  10.0891673  87.2601313   6.9591673  10.3391673  87.9721313
   8.4411673  11.4881673  78.2021313   9.1061673  11.3401673  77.6571313
   8.8011673  11.4051673  78.9921313   8.5931673  11.4541673  78.2381313
   6.1211673   7.4881673  91.8011313   6.0871673   7.8701673  92.5851313
   6.9751673   7.4461673  91.6301313   6.2421673   7.5381673  91.8921313
   3.2591673   7.6851673  76.5511313   3.0781673   8.2301673  77.2081313
   4.0251673   7.9751673  76.2501313   3.3451673   7.8091673  76.6041313
   4.5731673  10.6521673  89.2991313   5.3411673  10.5721673  88.8931313
   3.9901673  10.5311673  88.6611313   4.6001673  10.6221673  89.1451313
  10.8501673  11.2551673  82.2001313  10.3951673  11.9721673  82.4011313
  10.2361673  10.6841673  81.9581313  10.6921673  11.2771673  82.1941313
   7.8471673   7.1001673  81.7441313   8.5481673   6.6181673  81.9331313
   7.1871673   6.5311673  81.7891313   7.8531673   6.9451673  81.7781313
   7.1131673   4.1541673  87.4251313   6.5991673   3.7421673  87.9961313
   6.9871673   4.9981673  87.6061313   7.0191673   4.2181673  87.5361313
  10.3661673   4.5931673  77.5521313  10.4851673   4.3061673  78.3671313
  11.1731673   4.6141673  77.2221313  10.5021673   4.5541673  77.6241313
  12.6001673   9.1021673  91.8061313  11.9181673   9.4121673  91.3591313
  12.2311673   8.6441673  92.4511313  12.4441673   9.0801673  91.8351313
   4.3931673   8.0351673  83.4451313   3.8701673   8.6691673  83.1521313
   4.7031673   7.6711673  82.7161313   4.3611673   8.0751673  83.2941313
  10.4341673   9.4841673  89.8961313   9.7631673   9.9981673  90.1141313
  10.4971673   9.5841673  89.0321313  10.3441673   9.5751673  89.8011313
   2.4301673  10.2331673  87.4921313   2.1531673   9.5921673  86.9691313
   2.2221673  10.9591673  87.0541313   2.3591673  10.2461673  87.3501313
   7.7321673   5.0161673  91.9171313   8.2161673   5.7341673  92.0151313
   8.1261673   4.5891673  91.2661313   7.8621673   5.0591673  91.8351313
   5.1891673   1.7771673  78.0061313   5.1811673   2.4991673  77.5161313
   4.5501673   1.9121673  78.5831313   5.0941673   1.9041673  78.0191313
  10.1611673   5.6471673  81.9871313  10.5171673   5.2971673  82.7021313
  10.1531673   4.9861673  81.4171313  10.2131673   5.4971673  82.0081313
   6.2061673   8.7131673  85.8311313   5.6031673   8.4171673  85.2741313
   6.7511673   9.1651673  85.3221313   6.1971673   8.7361673  85.6731313
   6.2191673   5.5641673  85.2311313   5.4221673   5.7881673  85.5051313
   6.4771673   4.9701673  85.8161313   6.1391673   5.5091673  85.3581313
   2.4031673   9.8921673  78.0811313   3.0251673  10.0551673  78.6711313
   2.4391673  10.5831673  77.5491313   2.5001673  10.0181673  78.0901313
   9.4791673   3.5621673  90.0771313   9.5341673   3.6871673  89.2151313
  10.2321673   3.8821673  90.3791313   9.5981673   3.6271673  89.9941313
   5.2101673   3.3681673  89.6771313   5.0551673   3.9781673  90.2811313
   5.7441673   2.8101673  90.0831313   5.2661673   3.3761673  89.8261313
   8.8201673   6.0971673  86.2041313   8.3411673   6.3951673  85.5381313
   8.4641673   5.3211673  86.3821313   8.6971673   6.0261673  86.1321313
   2.8171673   3.8151673  84.7661313   1.9701673   3.6211673  84.8471313
   3.1411673   3.6501673  85.5591313   2.7391673   3.7621673  84.8951313
  12.5121673  10.2631673  78.1441313  13.2061673   9.7961673  77.8961313
  11.9731673   9.6651673  78.4811313  12.5351673  10.1051673  78.1571313
   9.7511673   3.0391673  87.3231313   9.7441673   2.2631673  87.7211313
   8.9101673   3.2731673  87.3161313   9.6261673   2.9591673  87.3811313
  11.0071673   3.1101673  84.7601313  10.7211673   3.5111673  85.4801313
  11.8671673   3.0481673  84.8871313  11.0921673   3.1601673  84.8851313
  12.1381673   8.7431673  85.2891313  12.4281673   9.0001673  84.5081313
  12.8331673   8.8391673  85.8081313  12.2841673   8.7951673  85.2501313
   8.7431673   7.3461673  77.2711313   9.0771673   6.5401673  77.3061313
   7.9881673   7.2741673  77.7011313   8.6811673   7.2161673  77.3401313
  11.6651673   5.1401673  90.6821313  12.2931673   4.5911673  90.4261313
  11.6041673   5.7051673  90.0201313  11.7491673   5.1431673  90.5461313
   6.1171673   5.2211673  76.6741313   6.8011673   4.7071673  76.5051313
   5.7001673   5.2671673  75.9091313   6.1561673   5.1521673  76.5361313
   3.3151673   2.7941673  87.4691313   3.7911673   3.1681673  88.0971313
   2.4921673   2.9281673  87.7281313   3.2641673   2.8691673  87.6001313
   2.5791673  10.1871673  82.6971313   3.1251673  10.8661673  82.7511313
   2.2291673  10.2691673  81.9021313   2.6081673  10.3001673  82.5871313
   8.9801673   7.5991673  91.5791313   9.3261673   7.8691673  92.3331313
   9.2741673   8.1811673  90.9991313   9.0751673   7.7251673  91.6051313
   3.4151673  10.0641673  91.9661313   3.8931673   9.4641673  91.5501313
   3.0641673   9.6211673  92.6311313   3.4341673   9.9101673  92.0031313
  10.0031673   3.3711673  80.1471313  10.4791673   2.6421673  80.0991313
   9.1821673   3.0851673  80.0711313   9.9521673   3.2211673  80.1281313
   3.4741673   5.2831673  90.9861313   2.6791673   5.2191673  91.3371313
   3.5451673   6.1301673  90.7911313   3.3671673   5.3981673  91.0091313
   6.2191673   4.5381673  82.5021313   6.2951673   4.8791673  83.3011313
   6.3881673   3.6911673  82.6231313   6.2551673   4.4631673  82.6381313
   3.7411673   3.8121673  82.0671313   3.4431673   3.4971673  82.8241313
   4.4361673   4.2851673  82.3021313   3.8001673   3.8351673  82.2141313
   3.9631673   7.9301673  90.0941313   4.6501673   7.8161673  90.6191313
   4.0971673   8.7211673  89.7501313   4.0841673   8.0301673  90.1211313
   7.6701673  10.7681673  84.5971313   7.2191673  11.4111673  84.9761313
   8.3781673  10.6891673  85.1021313   7.7081673  10.8511673  84.7281313
   4.3711673   5.8581673  87.5271313   3.6771673   6.2601673  87.8701313
   5.0481673   6.2911673  87.8661313   4.3681673   5.9811673  87.6281313
   4.6931673   7.4491673  80.6961313   4.4881673   8.2821673  80.5371313
   3.9181673   7.0671673  80.8181313   4.5481673   7.5161673  80.6911313
   8.9631673   9.4821673  80.6791313   8.7891673   8.8281673  81.2291313
   9.6761673   9.2111673  80.2561313   9.0431673   9.3451673  80.6981313
   6.6381673   6.9351673  88.3701313   6.8441673   7.2361673  89.1621313
   6.5771673   7.6571673  87.8851313   6.6591673   7.0861673  88.4151313
  11.4501673   5.5741673  87.8281313  11.4181673   4.7121673  87.6931313
  10.7571673   5.8761673  87.3941313  11.3431673   5.4911673  87.7441313
   9.5551673   8.8341673  86.6251313  10.0821673   8.7511673  85.9341313
   9.1641673   8.0561673  86.6791313   9.5751673   8.7071673  86.5311313
  10.4771673  10.8721673  76.3061313  11.1141673  10.7381673  76.8871313
  10.1361673  10.0781673  76.1891313  10.5211673  10.7351673  76.3741313
   6.5521673   7.1371673  78.6281313   6.3011673   7.0091673  79.4541313
   6.2351673   6.4421673  78.2071313   6.4681673   7.0161673  78.6881313
   3.4381673   5.3451673  78.0581313   4.1551673   4.9981673  77.7021313
   3.4041673   6.1451673  77.7101313   3.5391673   5.4121673  77.9541313
  10.8001673   8.3431673  59.9388903  11.5011673   7.8241673  59.9348903
  10.2131673   7.8981673  59.4698903  10.8171673   8.2001673  59.8688903
   2.1161673   6.3791673  65.5138903   2.4641673   5.5801673  65.5438903
   2.7811673   6.8831673  65.2588903   2.2661673   6.3351673  65.4808903
   2.1731673   5.8281673  61.7248903   2.5041673   5.1841673  62.2108903
   2.4131673   5.6171673  60.9138903   2.2571673   5.7021673  61.6768903
   6.2601673   9.9011673  58.7958903   6.9871673  10.3731673  58.8978903
   6.4891673   9.1071673  59.0758903   6.4021673   9.8541673  58.8528903
   4.4281673  10.2931673  60.7858903   4.6421673  10.8201673  61.4478903
   5.1951673  10.1191673  60.4068903   4.5731673  10.3451673  60.8278903
   6.8671673  10.3031673  69.0908903   7.6111673  10.7591673  69.0808903
   6.7461673  10.0891673  68.2538903   6.9591673  10.3391673  68.9658903
   8.4411673  11.4881673  59.1958903   9.1061673  11.3401673  58.6508903
   8.8011673  11.4051673  59.9858903   8.5931673  11.4541673  59.2318903
   6.1211673   7.4881673  72.7948903   6.0871673   7.8701673  73.5788903
   6.9751673   7.4461673  72.6238903   6.2421673   7.5381673  72.8858903
   3.2591673   7.6851673  57.5448903   3.0781673   8.2301673  58.2018903
   4.0251673   7.9751673  57.2438903   3.3451673   7.8091673  57.5978903
   4.5731673  10.6521673  70.2928903   5.3411673  10.5721673  69.8868903
   3.9901673  10.5311673  69.6548903   4.6001673  10.6221673  70.1388903
  10.8501673  11.2551673  63.1938903  10.3951673  11.9721673  63.3948903
  10.2361673  10.6841673  62.9518903  10.6921673  11.2771673  63.1878903
   7.8471673   7.1001673  62.7378903   8.5481673   6.6181673  62.9268903
   7.1871673   6.5311673  62.7828903   7.8531673   6.9451673  62.7718903
   7.1131673   4.1541673  68.4188903   6.5991673   3.7421673  68.9898903
   6.9871673   4.9981673  68.5998903   7.0191673   4.2181673  68.5298903
  10.3661673   4.5931673  58.5458903  10.4851673   4.3061673  59.3608903
  11.1731673   4.6141673  58.2158903  10.5021673   4.5541673  58.6178903
  12.6001673   9.1021673  72.7998903  11.9181673   9.4121673  72.3528903
  12.2311673   8.6441673  73.4448903  12.4441673   9.0801673  72.8288903
   4.3931673   8.0351673  64.4388903   3.8701673   8.6691673  64.1458903
   4.7031673   7.6711673  63.7098903   4.3611673   8.0751673  64.2878903
  10.4341673   9.4841673  70.8898903   9.7631673   9.9981673  71.1078903
  10.4971673   9.5841673  70.0258903  10.3441673   9.5751673  70.7948903
   2.4301673  10.2331673  68.4858903   2.1531673   9.5921673  67.9628903
   2.2221673  10.9591673  68.0478903   2.3591673  10.2461673  68.3438903
   7.7321673   5.0161673  72.9108903   8.2161673   5.7341673  73.0088903
   8.1261673   4.5891673  72.2598903   7.8621673   5.0591673  72.8288903
   5.1891673   1.7771673  58.9998903   5.1811673   2.4991673  58.5098903
   4.5501673   1.9121673  59.5768903   5.0941673   1.9041673  59.0128903
  10.1611673   5.6471673  62.9808903  10.5171673   5.2971673  63.6958903
  10.1531673   4.9861673  62.4108903  10.2131673   5.4971673  63.0018903
   6.2061673   8.7131673  66.8248903   5.6031673   8.4171673  66.2678903
   6.7511673   9.1651673  66.3158903   6.1971673   8.7361673  66.6668903
   6.2191673   5.5641673  66.2248903   5.4221673   5.7881673  66.4988903
   6.4771673   4.9701673  66.8098903   6.1391673   5.5091673  66.3518903
   2.4031673   9.8921673  59.0748903   3.0251673  10.0551673  59.6648903
   2.4391673  10.5831673  58.5428903   2.5001673  10.0181673  59.0838903
   9.4791673   3.5621673  71.0708903   9.5341673   3.6871673  70.2088903
  10.2321673   3.8821673  71.3728903   9.5981673   3.6271673  70.9878903
   5.6701673   8.9111673  75.3478903   5.8341673   9.1941673  76.1568903
   5.9331673   9.5721673  74.8428903   5.7331673   9.0511673  75.3928903
   5.2101673   3.3681673  70.6708903   5.0551673   3.9781673  71.2748903
   5.7441673   2.8101673  71.0768903   5.2661673   3.3761673  70.8198903
   8.8201673   6.0971673  67.1978903   8.3411673   6.3951673  66.5318903
   8.4641673   5.3211673  67.3758903   8.6971673   6.0261673  67.1258903
   2.8171673   3.8151673  65.7598903   1.9701673   3.6211673  65.8408903
   3.1411673   3.6501673  66.5528903   2.7391673   3.7621673  65.8888903
  12.5121673  10.2631673  59.1378903  13.2061673   9.7961673  58.8898903
  11.9731673   9.6651673  59.4748903  12.5351673  10.1051673  59.1508903
   9.7511673   3.0391673  68.3168903   9.7441673   2.2631673  68.7148903
   8.9101673   3.2731673  68.3098903   9.6261673   2.9591673  68.3748903
  11.0071673   3.1101673  65.7538903  10.7211673   3.5111673  66.4738903
  11.8671673   3.0481673  65.8808903  11.0921673   3.1601673  65.8788903
  12.1381673   8.7431673  66.2828903  12.4281673   9.0001673  65.5018903
  12.8331673   8.8391673  66.8018903  12.2841673   8.7951673  66.2438903
   8.7431673   7.3461673  58.2648903   9.0771673   6.5401673  58.2998903
   7.9881673   7.2741673  58.6948903   8.6811673   7.2161673  58.3338903
  11.6651673   5.1401673  71.6758903  12.2931673   4.5911673  71.4198903
  11.6041673   5.7051673  71.0138903  11.7491673   5.1431673  71.5398903
   6.1171673   5.2211673  57.6678903   6.8011673   4.7071673  57.4988903
   5.7001673   5.2671673  56.9028903   6.1561673   5.1521673  57.5298903
   3.3151673   2.7941673  68.4628903   3.7911673   3.1681673  69.0908903
   2.4921673   2.9281673  68.7218903   3.2641673   2.8691673  68.5938903
   2.5791673  10.1871673  63.6908903   3.1251673  10.8661673  63.7448903
   2.2291673  10.2691673  62.8958903   2.6081673  10.3001673  63.5808903
   5.0711673   5.0491673  74.0688903   5.8281673   5.3351673  73.7428903
   4.5241673   5.1011673  73.3908903   5.1021673   5.0991673  73.9198903
   8.9801673   7.5991673  72.5728903   9.3261673   7.8691673  73.3268903
   9.2741673   8.1811673  71.9928903   9.0751673   7.7251673  72.5988903
   3.4151673  10.0641673  72.9598903   3.8931673   9.4641673  72.5438903
   3.0641673   9.6211673  73.6248903   3.4341673   9.9101673  72.9968903
  10.0031673   3.3711673  61.1408903  10.4791673   2.6421673  61.0928903
   9.1821673   3.0851673  61.0648903   9.9521673   3.2211673  61.1218903
   3.4741673   5.2831673  71.9798903   2.6791673   5.2191673  72.3308903
   3.5451673   6.1301673  71.7848903   3.3671673   5.3981673  72.0028903
   6.2191673   4.5381673  63.4958903   6.2951673   4.8791673  64.2948903
   6.3881673   3.6911673  63.6168903   6.2551673   4.4631673  63.6318903
   3.7411673   3.8121673  63.0608903   3.4431673   3.4971673  63.8178903
   4.4361673   4.2851673  63.2958903   3.8001673   3.8351673  63.2078903
   3.9631673   7.9301673  71.0878903   4.6501673   7.8161673  71.6128903
   4.0971673   8.7211673  70.7438903   4.0841673   8.0301673  71.1148903
   4.5861673   2.3941673  74.6618903   4.9091673   3.0801673  74.2298903
   3.8821673   2.7171673  75.0638903   4.5291673   2.5431673  74.6568903
   7.6701673  10.7681673  65.5908903   7.2191673  11.4111673  65.9698903
   8.3781673  10.6891673  66.0958903   7.7081673  10.8511673  65.7218903
   4.3711673   5.8581673  68.5208903   3.6771673   6.2601673  68.8638903
   5.0481673   6.2911673  68.8598903   4.3681673   5.9811673  68.6218903
   9.7481673   8.4511673  75.1008903  10.5241673   8.0611673  75.1838903
   9.2791673   8.1151673  75.7558903   9.7931673   8.3441673  75.2098903
   4.6931673   7.4491673  61.6898903   4.4881673   8.2821673  61.5308903
   3.9181673   7.0671673  61.8118903   4.5481673   7.5161673  61.6848903
   8.9631673   9.4821673  61.6728903   8.7891673   8.8281673  62.2228903
   9.6761673   9.2111673  61.2498903   9.0431673   9.3451673  61.6918903
   6.6381673   6.9351673  69.3638903   6.8441673   7.2361673  70.1558903
   6.5771673   7.6571673  68.8788903   6.6591673   7.0861673  69.4088903
   6.1721673  11.1491673  73.6098903   5.4191673  11.1311673  73.1688903
   6.3401673  12.0011673  73.6938903   6.0861673  11.2721673  73.5568903
  11.4501673   5.5741673  68.8218903  11.4181673   4.7121673  68.6868903
  10.7571673   5.8761673  68.3878903  11.3431673   5.4911673  68.7378903
   9.5551673   8.8341673  67.6188903  10.0821673   8.7511673  66.9278903
   9.1641673   8.0561673  67.6728903   9.5751673   8.7071673  67.5248903
  10.4771673  10.8721673  57.2998903  11.1141673  10.7381673  57.8808903
  10.1361673  10.0781673  57.1828903  10.5211673  10.7351673  57.3678903
  10.6721673   3.2901673  74.0328903  11.3061673   3.1201673  74.6068903
  11.0891673   3.6931673  73.3808903  10.8271673   3.3251673  74.0218903
   6.5521673   7.1371673  59.6218903   6.3011673   7.0091673  60.4478903
   6.2351673   6.4421673  59.2008903   6.4681673   7.0161673  59.6818903
   8.0831673   3.4011673  75.3878903   8.9541673   3.3651673  75.3518903
   7.8641673   3.8211673  74.6558903   8.1801673   3.4571673  75.2748903
   3.4381673   5.3451673  59.0518903   4.1551673   4.9981673  58.6958903
   3.4041673   6.1451673  58.7038903   3.5391673   5.4121673  58.9478903
  10.8001673   8.3431673  40.9326493  11.5011673   7.8241673  40.9286493
  10.2131673   7.8981673  40.4636493  10.8171673   8.2001673  40.8626493
   2.1161673   6.3791673  46.5076493   2.4641673   5.5801673  46.5376493
   2.7811673   6.8831673  46.2526493   2.2661673   6.3351673  46.4746493
   2.1731673   5.8281673  42.7186493   2.5041673   5.1841673  43.2046493
   2.4131673   5.6171673  41.9076493   2.2571673   5.7021673  42.6706493
   6.2601673   9.9011673  39.7896493   6.9871673  10.3731673  39.8916493
   6.4891673   9.1071673  40.0696493   6.4021673   9.8541673  39.8466493
   4.4281673  10.2931673  41.7796493   4.6421673  10.8201673  42.4416493
   5.1951673  10.1191673  41.4006493   4.5731673  10.3451673  41.8216493
   6.8671673  10.3031673  50.0846493   7.6111673  10.7591673  50.0746493
   6.7461673  10.0891673  49.2476493   6.9591673  10.3391673  49.9596493
   8.4411673  11.4881673  40.1896493   9.1061673  11.3401673  39.6446493
   8.8011673  11.4051673  40.9796493   8.5931673  11.4541673  40.2256493
   6.1211673   7.4881673  53.7886493   6.0871673   7.8701673  54.5726493
   6.9751673   7.4461673  53.6176493   6.2421673   7.5381673  53.8796493
   3.2591673   7.6851673  38.5386493   3.0781673   8.2301673  39.1956493
   4.0251673   7.9751673  38.2376493   3.3451673   7.8091673  38.5916493
   4.5731673  10.6521673  51.2866493   5.3411673  10.5721673  50.8806493
   3.9901673  10.5311673  50.6486493   4.6001673  10.6221673  51.1326493
  10.8501673  11.2551673  44.1876493  10.3951673  11.9721673  44.3886493
  10.2361673  10.6841673  43.9456493  10.6921673  11.2771673  44.1816493
   7.8471673   7.1001673  43.7316493   8.5481673   6.6181673  43.9206493
   7.1871673   6.5311673  43.7766493   7.8531673   6.9451673  43.7656493
   7.1131673   4.1541673  49.4126493   6.5991673   3.7421673  49.9836493
   6.9871673   4.9981673  49.5936493   7.0191673   4.2181673  49.5236493
  10.3661673   4.5931673  39.5396493  10.4851673   4.3061673  40.3546493
  11.1731673   4.6141673  39.2096493  10.5021673   4.5541673  39.6116493
  12.6001673   9.1021673  53.7936493  11.9181673   9.4121673  53.3466493
  12.2311673   8.6441673  54.4386493  12.4441673   9.0801673  53.8226493
   4.3931673   8.0351673  45.4326493   3.8701673   8.6691673  45.1396493
   4.7031673   7.6711673  44.7036493   4.3611673   8.0751673  45.2816493
  10.4341673   9.4841673  51.8836493   9.7631673   9.9981673  52.1016493
  10.4971673   9.5841673  51.0196493  10.3441673   9.5751673  51.7886493
   2.4301673  10.2331673  49.4796493   2.1531673   9.5921673  48.9566493
   2.2221673  10.9591673  49.0416493   2.3591673  10.2461673  49.3376493
   7.7321673   5.0161673  53.9046493   8.2161673   5.7341673  54.0026493
   8.1261673   4.5891673  53.2536493   7.8621673   5.0591673  53.8226493
   5.1891673   1.7771673  39.9936493   5.1811673   2.4991673  39.5036493
   4.5501673   1.9121673  40.5706493   5.0941673   1.9041673  40.0066493
  10.1611673   5.6471673  43.9746493  10.5171673   5.2971673  44.6896493
  10.1531673   4.9861673  43.4046493  10.2131673   5.4971673  43.9956493
   6.2061673   8.7131673  47.8186493   5.6031673   8.4171673  47.2616493
   6.7511673   9.1651673  47.3096493   6.1971673   8.7361673  47.6606493
   6.2191673   5.5641673  47.2186493   5.4221673   5.7881673  47.4926493
   6.4771673   4.9701673  47.8036493   6.1391673   5.5091673  47.3456493
   2.4031673   9.8921673  40.0686493   3.0251673  10.0551673  40.6586493
   2.4391673  10.5831673  39.5366493   2.5001673  10.0181673  40.0776493
   9.4791673   3.5621673  52.0646493   9.5341673   3.6871673  51.2026493
  10.2321673   3.8821673  52.3666493   9.5981673   3.6271673  51.9816493
   5.6701673   8.9111673  56.3416493   5.8341673   9.1941673  57.1506493
   5.9331673   9.5721673  55.8366493   5.7331673   9.0511673  56.3866493
   5.2101673   3.3681673  51.6646493   5.0551673   3.9781673  52.2686493
   5.7441673   2.8101673  52.0706493   5.2661673   3.3761673  51.8136493
   8.8201673   6.0971673  48.1916493   8.3411673   6.3951673  47.5256493
   8.4641673   5.3211673  48.3696493   8.6971673   6.0261673  48.1196493
   2.8171673   3.8151673  46.7536493   1.9701673   3.6211673  46.8346493
   3.1411673   3.6501673  47.5466493   2.7391673   3.7621673  46.8826493
  12.5121673  10.2631673  40.1316493  13.2061673   9.7961673  39.8836493
  11.9731673   9.6651673  40.4686493  12.5351673  10.1051673  40.1446493
   9.7511673   3.0391673  49.3106493   9.7441673   2.2631673  49.7086493
   8.9101673   3.2731673  49.3036493   9.6261673   2.9591673  49.3686493
  11.0071673   3.1101673  46.7476493  10.7211673   3.5111673  47.4676493
  11.8671673   3.0481673  46.8746493  11.0921673   3.1601673  46.8726493
  12.1381673   8.7431673  47.2766493  12.4281673   9.0001673  46.4956493
  12.8331673   8.8391673  47.7956493  12.2841673   8.7951673  47.2376493
   8.7431673   7.3461673  39.2586493   9.0771673   6.5401673  39.2936493
   7.9881673   7.2741673  39.6886493   8.6811673   7.2161673  39.3276493
  11.6651673   5.1401673  52.6696493  12.2931673   4.5911673  52.4136493
  11.6041673   5.7051673  52.0076493  11.7491673   5.1431673  52.5336493
   6.1171673   5.2211673  38.6616493   6.8011673   4.7071673  38.4926493
   5.7001673   5.2671673  37.8966493   6.1561673   5.1521673  38.5236493
   3.3151673   2.7941673  49.4566493   3.7911673   3.1681673  50.0846493
   2.4921673   2.9281673  49.7156493   3.2641673   2.8691673  49.5876493
   2.5791673  10.1871673  44.6846493   3.1251673  10.8661673  44.7386493
   2.2291673  10.2691673  43.8896493   2.6081673  10.3001673  44.5746493
   5.0711673   5.0491673  55.0626493   5.8281673   5.3351673  54.7366493
   4.5241673   5.1011673  54.3846493   5.1021673   5.0991673  54.9136493
   8.9801673   7.5991673  53.5666493   9.3261673   7.8691673  54.3206493
   9.2741673   8.1811673  52.9866493   9.0751673   7.7251673  53.5926493
   3.4151673  10.0641673  53.9536493   3.8931673   9.4641673  53.5376493
   3.0641673   9.6211673  54.6186493   3.4341673   9.9101673  53.9906493
  10.0031673   3.3711673  42.1346493  10.4791673   2.6421673  42.0866493
   9.1821673   3.0851673  42.0586493   9.9521673   3.2211673  42.1156493
   3.4741673   5.2831673  52.9736493   2.6791673   5.2191673  53.3246493
   3.5451673   6.1301673  52.7786493   3.3671673   5.3981673  52.9966493
   6.2191673   4.5381673  44.4896493   6.2951673   4.8791673  45.2886493
   6.3881673   3.6911673  44.6106493   6.2551673   4.4631673  44.6256493
   3.7411673   3.8121673  44.0546493   3.4431673   3.4971673  44.8116493
   4.4361673   4.2851673  44.2896493   3.8001673   3.8351673  44.2016493
   3.9631673   7.9301673  52.0816493   4.6501673   7.8161673  52.6066493
   4.0971673   8.7211673  51.7376493   4.0841673   8.0301673  52.1086493
   4.5861673   2.3941673  55.6556493   4.9091673   3.0801673  55.2236493
   3.8821673   2.7171673  56.0576493   4.5291673   2.5431673  55.6506493
   7.6701673  10.7681673  46.5846493   7.2191673  11.4111673  46.9636493
   8.3781673  10.6891673  47.0896493   7.7081673  10.8511673  46.7156493
   4.3711673   5.8581673  49.5146493   3.6771673   6.2601673  49.8576493
   5.0481673   6.2911673  49.8536493   4.3681673   5.9811673  49.6156493
   9.7481673   8.4511673  56.0946493  10.5241673   8.0611673  56.1776493
   9.2791673   8.1151673  56.7496493   9.7931673   8.3441673  56.2036493
   4.6931673   7.4491673  42.6836493   4.4881673   8.2821673  42.5246493
   3.9181673   7.0671673  42.8056493   4.5481673   7.5161673  42.6786493
   8.9631673   9.4821673  42.6666493   8.7891673   8.8281673  43.2166493
   9.6761673   9.2111673  42.2436493   9.0431673   9.3451673  42.6856493
   6.6381673   6.9351673  50.3576493   6.8441673   7.2361673  51.1496493
   6.5771673   7.6571673  49.8726493   6.6591673   7.0861673  50.4026493
   6.1721673  11.1491673  54.6036493   5.4191673  11.1311673  54.1626493
   6.3401673  12.0011673  54.6876493   6.0861673  11.2721673  54.5506493
  11.4501673   5.5741673  49.8156493  11.4181673   4.7121673  49.6806493
  10.7571673   5.8761673  49.3816493  11.3431673   5.4911673  49.7316493
   9.5551673   8.8341673  48.6126493  10.0821673   8.7511673  47.9216493
   9.1641673   8.0561673  48.6666493   9.5751673   8.7071673  48.5186493
  10.4771673  10.8721673  38.2936493  11.1141673  10.7381673  38.8746493
  10.1361673  10.0781673  38.1766493  10.5211673  10.7351673  38.3616493
  10.6721673   3.2901673  55.0266493  11.3061673   3.1201673  55.6006493
  11.0891673   3.6931673  54.3746493  10.8271673   3.3251673  55.0156493
   6.5521673   7.1371673  40.6156493   6.3011673   7.0091673  41.4416493
   6.2351673   6.4421673  40.1946493   6.4681673   7.0161673  40.6756493
   8.0831673   3.4011673  56.3816493   8.9541673   3.3651673  56.3456493
   7.8641673   3.8211673  55.6496493   8.1801673   3.4571673  56.2686493
   3.4381673   5.3451673  40.0456493   4.1551673   4.9981673  39.6896493
   3.4041673   6.1451673  39.6976493   3.5391673   5.4121673  39.9416493
  10.8001673   8.3431673  21.9264083  11.5011673   7.8241673  21.9224083
  10.2131673   7.8981673  21.4574083  10.8171673   8.2001673  21.8564083
   2.1161673   6.3791673  27.5014083   2.4641673   5.5801673  27.5314083
   2.7811673   6.8831673  27.2464083   2.2661673   6.3351673  27.4684083
   2.1731673   5.8281673  23.7124083   2.5041673   5.1841673  24.1984083
   2.4131673   5.6171673  22.9014083   2.2571673   5.7021673  23.6644083
   6.2601673   9.9011673  20.7834083   6.9871673  10.3731673  20.8854083
   6.4891673   9.1071673  21.0634083   6.4021673   9.8541673  20.8404083
   4.4281673  10.2931673  22.7734083   4.6421673  10.8201673  23.4354083
   5.1951673  10.1191673  22.3944083   4.5731673  10.3451673  22.8154083
   6.8671673  10.3031673  31.0784083   7.6111673  10.7591673  31.0684083
   6.7461673  10.0891673  30.2414083   6.9591673  10.3391673  30.9534083
   8.4411673  11.4881673  21.1834083   9.1061673  11.3401673  20.6384083
   8.8011673  11.4051673  21.9734083   8.5931673  11.4541673  21.2194083
   6.1211673   7.4881673  34.7824083   6.0871673   7.8701673  35.5664083
   6.9751673   7.4461673  34.6114083   6.2421673   7.5381673  34.8734083
   3.2591673   7.6851673  19.5324083   3.0781673   8.2301673  20.1894083
   4.0251673   7.9751673  19.2314083   3.3451673   7.8091673  19.5854083
   4.5731673  10.6521673  32.2804083   5.3411673  10.5721673  31.8744083
   3.9901673  10.5311673  31.6424083   4.6001673  10.6221673  32.1264083
  10.8501673  11.2551673  25.1814083  10.3951673  11.9721673  25.3824083
  10.2361673  10.6841673  24.9394083  10.6921673  11.2771673  25.1754083
   7.8471673   7.1001673  24.7254083   8.5481673   6.6181673  24.9144083
   7.1871673   6.5311673  24.7704083   7.8531673   6.9451673  24.7594083
   7.1131673   4.1541673  30.4064083   6.5991673   3.7421673  30.9774083
   6.9871673   4.9981673  30.5874083   7.0191673   4.2181673  30.5174083
  10.3661673   4.5931673  20.5334083  10.4851673   4.3061673  21.3484083
  11.1731673   4.6141673  20.2034083  10.5021673   4.5541673  20.6054083
  12.6001673   9.1021673  34.7874083  11.9181673   9.4121673  34.3404083
  12.2311673   8.6441673  35.4324083  12.4441673   9.0801673  34.8164083
   4.3931673   8.0351673  26.4264083   3.8701673   8.6691673  26.1334083
   4.7031673   7.6711673  25.6974083   4.3611673   8.0751673  26.2754083
  10.4341673   9.4841673  32.8774083   9.7631673   9.9981673  33.0954083
  10.4971673   9.5841673  32.0134083  10.3441673   9.5751673  32.7824083
   2.4301673  10.2331673  30.4734083   2.1531673   9.5921673  29.9504083
   2.2221673  10.9591673  30.0354083   2.3591673  10.2461673  30.3314083
   7.7321673   5.0161673  34.8984083   8.2161673   5.7341673  34.9964083
   8.1261673   4.5891673  34.2474083   7.8621673   5.0591673  34.8164083
   5.1891673   1.7771673  20.9874083   5.1811673   2.4991673  20.4974083
   4.5501673   1.9121673  21.5644083   5.0941673   1.9041673  21.0004083
  10.1611673   5.6471673  24.9684083  10.5171673   5.2971673  25.6834083
  10.1531673   4.9861673  24.3984083  10.2131673   5.4971673  24.9894083
   6.2061673   8.7131673  28.8124083   5.6031673   8.4171673  28.2554083
   6.7511673   9.1651673  28.3034083   6.1971673   8.7361673  28.6544083
   6.2191673   5.5641673  28.2124083   5.4221673   5.7881673  28.4864083
   6.4771673   4.9701673  28.7974083   6.1391673   5.5091673  28.3394083
   2.4031673   9.8921673  21.0624083   3.0251673  10.0551673  21.6524083
   2.4391673  10.5831673  20.5304083   2.5001673  10.0181673  21.0714083
   9.4791673   3.5621673  33.0584083   9.5341673   3.6871673  32.1964083
  10.2321673   3.8821673  33.3604083   9.5981673   3.6271673  32.9754083
   5.6701673   8.9111673  37.3354083   5.8341673   9.1941673  38.1444083
   5.9331673   9.5721673  36.8304083   5.7331673   9.0511673  37.3804083
   5.2101673   3.3681673  32.6584083   5.0551673   3.9781673  33.2624083
   5.7441673   2.8101673  33.0644083   5.2661673   3.3761673  32.8074083
   8.8201673   6.0971673  29.1854083   8.3411673   6.3951673  28.5194083
   8.4641673   5.3211673  29.3634083   8.6971673   6.0261673  29.1134083
   2.8171673   3.8151673  27.7474083   1.9701673   3.6211673  27.8284083
   3.1411673   3.6501673  28.5404083   2.7391673   3.7621673  27.8764083
  12.5121673  10.2631673  21.1254083  13.2061673   9.7961673  20.8774083
  11.9731673   9.6651673  21.4624083  12.5351673  10.1051673  21.1384083
   9.7511673   3.0391673  30.3044083   9.7441673   2.2631673  30.7024083
   8.9101673   3.2731673  30.2974083   9.6261673   2.9591673  30.3624083
  11.0071673   3.1101673  27.7414083  10.7211673   3.5111673  28.4614083
  11.8671673   3.0481673  27.8684083  11.0921673   3.1601673  27.8664083
  12.1381673   8.7431673  28.2704083  12.4281673   9.0001673  27.4894083
  12.8331673   8.8391673  28.7894083  12.2841673   8.7951673  28.2314083
   8.7431673   7.3461673  20.2524083   9.0771673   6.5401673  20.2874083
   7.9881673   7.2741673  20.6824083   8.6811673   7.2161673  20.3214083
  11.6651673   5.1401673  33.6634083  12.2931673   4.5911673  33.4074083
  11.6041673   5.7051673  33.0014083  11.7491673   5.1431673  33.5274083
   6.1171673   5.2211673  19.6554083   6.8011673   4.7071673  19.4864083
   5.7001673   5.2671673  18.8904083   6.1561673   5.1521673  19.5174083
   3.3151673   2.7941673  30.4504083   3.7911673   3.1681673  31.0784083
   2.4921673   2.9281673  30.7094083   3.2641673   2.8691673  30.5814083
   2.5791673  10.1871673  25.6784083   3.1251673  10.8661673  25.7324083
   2.2291673  10.2691673  24.8834083   2.6081673  10.3001673  25.5684083
   5.0711673   5.0491673  36.0564083   5.8281673   5.3351673  35.7304083
   4.5241673   5.1011673  35.3784083   5.1021673   5.0991673  35.9074083
   8.9801673   7.5991673  34.5604083   9.3261673   7.8691673  35.3144083
   9.2741673   8.1811673  33.9804083   9.0751673   7.7251673  34.5864083
   3.4151673  10.0641673  34.9474083   3.8931673   9.4641673  34.5314083
   3.0641673   9.6211673  35.6124083   3.4341673   9.9101673  34.9844083
  10.0031673   3.3711673  23.1284083  10.4791673   2.6421673  23.0804083
   9.1821673   3.0851673  23.0524083   9.9521673   3.2211673  23.1094083
   3.4741673   5.2831673  33.9674083   2.6791673   5.2191673  34.3184083
   3.5451673   6.1301673  33.7724083   3.3671673   5.3981673  33.9904083
   6.2191673   4.5381673  25.4834083   6.2951673   4.8791673  26.2824083
   6.3881673   3.6911673  25.6044083   6.2551673   4.4631673  25.6194083
   3.7411673   3.8121673  25.0484083   3.4431673   3.4971673  25.8054083
   4.4361673   4.2851673  25.2834083   3.8001673   3.8351673  25.1954083
   3.9631673   7.9301673  33.0754083   4.6501673   7.8161673  33.6004083
   4.0971673   8.7211673  32.7314083   4.0841673   8.0301673  33.1024083
   4.5861673   2.3941673  36.6494083   4.9091673   3.0801673  36.2174083
   3.8821673   2.7171673  37.0514083   4.5291673   2.5431673  36.6444083
   7.6701673  10.7681673  27.5784083   7.2191673  11.4111673  27.9574083
   8.3781673  10.6891673  28.0834083   7.7081673  10.8511673  27.7094083
   4.3711673   5.8581673  30.5084083   3.6771673   6.2601673  30.8514083
   5.0481673   6.2911673  30.8474083   4.3681673   5.9811673  30.6094083
   9.7481673   8.4511673  37.0884083  10.5241673   8.0611673  37.1714083
   9.2791673   8.1151673  37.7434083   9.7931673   8.3441673  37.1974083
   4.6931673   7.4491673  23.6774083   4.4881673   8.2821673  23.5184083
   3.9181673   7.0671673  23.7994083   4.5481673   7.5161673  23.6724083
   8.9631673   9.4821673  23.6604083   8.7891673   8.8281673  24.2104083
   9.6761673   9.2111673  23.2374083   9.0431673   9.3451673  23.6794083
   6.6381673   6.9351673  31.3514083   6.8441673   7.2361673  32.1434083
   6.5771673   7.6571673  30.8664083   6.6591673   7.0861673  31.3964083
   6.1721673  11.1491673  35.5974083   5.4191673  11.1311673  35.1564083
   6.3401673  12.0011673  35.6814083   6.0861673  11.2721673  35.5444083
  11.4501673   5.5741673  30.8094083  11.4181673   4.7121673  30.6744083
  10.7571673   5.8761673  30.3754083  11.3431673   5.4911673  30.7254083
   9.5551673   8.8341673  29.6064083  10.0821673   8.7511673  28.9154083
   9.1641673   8.0561673  29.6604083   9.5751673   8.7071673  29.5124083
  10.4771673  10.8721673  19.2874083  11.1141673  10.7381673  19.8684083
  10.1361673  10.0781673  19.1704083  10.5211673  10.7351673  19.3554083
  10.6721673   3.2901673  36.0204083  11.3061673   3.1201673  36.5944083
  11.0891673   3.6931673  35.3684083  10.8271673   3.3251673  36.0094083
   6.5521673   7.1371673  21.6094083   6.3011673   7.0091673  22.4354083
   6.2351673   6.4421673  21.1884083   6.4681673   7.0161673  21.6694083
   8.0831673   3.4011673  37.3754083   8.9541673   3.3651673  37.3394083
   7.8641673   3.8211673  36.6434083   8.1801673   3.4571673  37.2624083
   3.4381673   5.3451673  21.0394083   4.1551673   4.9981673  20.6834083
   3.4041673   6.1451673  20.6914083   3.5391673   5.4121673  20.9354083
  10.8001673   8.3431673   2.9201673  11.5011673   7.8241673   2.9161673
  10.2131673   7.8981673   2.4511673  10.8171673   8.2001673   2.8501673
   2.1161673   6.3791673   8.4951673   2.4641673   5.5801673   8.5251673
   2.7811673   6.8831673   8.2401673   2.2661673   6.3351673   8.4621673
   2.1731673   5.8281673   4.7061673   2.5041673   5.1841673   5.1921673
   2.4131673   5.6171673   3.8951673   2.2571673   5.7021673   4.6581673
   6.2601673   9.9011673   1.7771673   6.9871673  10.3731673   1.8791673
   6.4891673   9.1071673   2.0571673   6.4021673   9.8541673   1.8341673
   4.4281673  10.2931673   3.7671673   4.6421673  10.8201673   4.4291673
   5.1951673  10.1191673   3.3881673   4.5731673  10.3451673   3.8091673
   6.8671673  10.3031673  12.0721673   7.6111673  10.7591673  12.0621673
   6.7461673  10.0891673  11.2351673   6.9591673  10.3391673  11.9471673
   8.4411673  11.4881673   2.1771673   9.1061673  11.3401673   1.6321673
   8.8011673  11.4051673   2.9671673   8.5931673  11.4541673   2.2131673
   6.1211673   7.4881673  15.7761673   6.0871673   7.8701673  16.5601673
   6.9751673   7.4461673  15.6051673   6.2421673   7.5381673  15.8671673
   4.5731673  10.6521673  13.2741673   5.3411673  10.5721673  12.8681673
   3.9901673  10.5311673  12.6361673   4.6001673  10.6221673  13.1201673
  10.8501673  11.2551673   6.1751673  10.3951673  11.9721673   6.3761673
  10.2361673  10.6841673   5.9331673  10.6921673  11.2771673   6.1691673
   7.8471673   7.1001673   5.7191673   8.5481673   6.6181673   5.9081673
   7.1871673   6.5311673   5.7641673   7.8531673   6.9451673   5.7531673
   7.1131673   4.1541673  11.4001673   6.5991673   3.7421673  11.9711673
   6.9871673   4.9981673  11.5811673   7.0191673   4.2181673  11.5111673
  12.6001673   9.1021673  15.7811673  11.9181673   9.4121673  15.3341673
  12.2311673   8.6441673  16.4261673  12.4441673   9.0801673  15.8101673
   4.3931673   8.0351673   7.4201673   3.8701673   8.6691673   7.1271673
   4.7031673   7.6711673   6.6911673   4.3611673   8.0751673   7.2691673
  10.4341673   9.4841673  13.8711673   9.7631673   9.9981673  14.0891673
  10.4971673   9.5841673  13.0071673  10.3441673   9.5751673  13.7761673
   2.4301673  10.2331673  11.4671673   2.1531673   9.5921673  10.9441673
   2.2221673  10.9591673  11.0291673   2.3591673  10.2461673  11.3251673
   7.7321673   5.0161673  15.8921673   8.2161673   5.7341673  15.9901673
   8.1261673   4.5891673  15.2411673   7.8621673   5.0591673  15.8101673
  10.1611673   5.6471673   5.9621673  10.5171673   5.2971673   6.6771673
  10.1531673   4.9861673   5.3921673  10.2131673   5.4971673   5.9831673
   6.2061673   8.7131673   9.8061673   5.6031673   8.4171673   9.2491673
   6.7511673   9.1651673   9.2971673   6.1971673   8.7361673   9.6481673
   6.2191673   5.5641673   9.2061673   5.4221673   5.7881673   9.4801673
   6.4771673   4.9701673   9.7911673   6.1391673   5.5091673   9.3331673
   9.4791673   3.5621673  14.0521673   9.5341673   3.6871673  13.1901673
  10.2321673   3.8821673  14.3541673   9.5981673   3.6271673  13.9691673
   5.6701673   8.9111673  18.3291673   5.8341673   9.1941673  19.1381673
   5.9331673   9.5721673  17.8241673   5.7331673   9.0511673  18.3741673
   5.2101673   3.3681673  13.6521673   5.0551673   3.9781673  14.2561673
   5.7441673   2.8101673  14.0581673   5.2661673   3.3761673  13.8011673
   8.8201673   6.0971673  10.1791673   8.3411673   6.3951673   9.5131673
   8.4641673   5.3211673  10.3571673   8.6971673   6.0261673  10.1071673
   2.8171673   3.8151673   8.7411673   1.9701673   3.6211673   8.8221673
   3.1411673   3.6501673   9.5341673   2.7391673   3.7621673   8.8701673
  12.5121673  10.2631673   2.1191673  13.2061673   9.7961673   1.8711673
  11.9731673   9.6651673   2.4561673  12.5351673  10.1051673   2.1321673
   9.7511673   3.0391673  11.2981673   9.7441673   2.2631673  11.6961673
   8.9101673   3.2731673  11.2911673   9.6261673   2.9591673  11.3561673
  11.0071673   3.1101673   8.7351673  10.7211673   3.5111673   9.4551673
  11.8671673   3.0481673   8.8621673  11.0921673   3.1601673   8.8601673
  12.1381673   8.7431673   9.2641673  12.4281673   9.0001673   8.4831673
  12.8331673   8.8391673   9.7831673  12.2841673   8.7951673   9.2251673
  11.6651673   5.1401673  14.6571673  12.2931673   4.5911673  14.4011673
  11.6041673   5.7051673  13.9951673  11.7491673   5.1431673  14.5211673
   3.3151673   2.7941673  11.4441673   3.7911673   3.1681673  12.0721673
   2.4921673   2.9281673  11.7031673   3.2641673   2.8691673  11.5751673
   2.5791673  10.1871673   6.6721673   3.1251673  10.8661673   6.7261673
   2.2291673  10.2691673   5.8771673   2.6081673  10.3001673   6.5621673
   5.0711673   5.0491673  17.0501673   5.8281673   5.3351673  16.7241673
   4.5241673   5.1011673  16.3721673   5.1021673   5.0991673  16.9011673
   8.9801673   7.5991673  15.5541673   9.3261673   7.8691673  16.3081673
   9.2741673   8.1811673  14.9741673   9.0751673   7.7251673  15.5801673
   3.4151673  10.0641673  15.9411673   3.8931673   9.4641673  15.5251673
   3.0641673   9.6211673  16.6061673   3.4341673   9.9101673  15.9781673
  10.0031673   3.3711673   4.1221673  10.4791673   2.6421673   4.0741673
   9.1821673   3.0851673   4.0461673   9.9521673   3.2211673   4.1031673
   3.4741673   5.2831673  14.9611673   2.6791673   5.2191673  15.3121673
   3.5451673   6.1301673  14.7661673   3.3671673   5.3981673  14.9841673
   6.2191673   4.5381673   6.4771673   6.2951673   4.8791673   7.2761673
   6.3881673   3.6911673   6.5981673   6.2551673   4.4631673   6.6131673
   3.7411673   3.8121673   6.0421673   3.4431673   3.4971673   6.7991673
   4.4361673   4.2851673   6.2771673   3.8001673   3.8351673   6.1891673
   3.9631673   7.9301673  14.0691673   4.6501673   7.8161673  14.5941673
   4.0971673   8.7211673  13.7251673   4.0841673   8.0301673  14.0961673
   4.5861673   2.3941673  17.6431673   4.9091673   3.0801673  17.2111673
   3.8821673   2.7171673  18.0451673   4.5291673   2.5431673  17.6381673
   7.6701673  10.7681673   8.5721673   7.2191673  11.4111673   8.9511673
   8.3781673  10.6891673   9.0771673   7.7081673  10.8511673   8.7031673
   4.3711673   5.8581673  11.5021673   3.6771673   6.2601673  11.8451673
   5.0481673   6.2911673  11.8411673   4.3681673   5.9811673  11.6031673
   9.7481673   8.4511673  18.0821673  10.5241673   8.0611673  18.1651673
   9.2791673   8.1151673  18.7371673   9.7931673   8.3441673  18.1911673
   4.6931673   7.4491673   4.6711673   4.4881673   8.2821673   4.5121673
   3.9181673   7.0671673   4.7931673   4.5481673   7.5161673   4.6661673
   8.9631673   9.4821673   4.6541673   8.7891673   8.8281673   5.2041673
   9.6761673   9.2111673   4.2311673   9.0431673   9.3451673   4.6731673
   6.6381673   6.9351673  12.3451673   6.8441673   7.2361673  13.1371673
   6.5771673   7.6571673  11.8601673   6.6591673   7.0861673  12.3901673
   6.1721673  11.1491673  16.5911673   5.4191673  11.1311673  16.1501673
   6.3401673  12.0011673  16.6751673   6.0861673  11.2721673  16.5381673
  11.4501673   5.5741673  11.8031673  11.4181673   4.7121673  11.6681673
  10.7571673   5.8761673  11.3691673  11.3431673   5.4911673  11.7191673
   9.5551673   8.8341673  10.6001673  10.0821673   8.7511673   9.9091673
   9.1641673   8.0561673  10.6541673   9.5751673   8.7071673  10.5061673
  10.6721673   3.2901673  17.0141673  11.3061673   3.1201673  17.5881673
  11.0891673   3.6931673  16.3621673  10.8271673   3.3251673  17.0031673
   6.5521673   7.1371673   2.6031673   6.3011673   7.0091673   3.4291673
   6.2351673   6.4421673   2.1821673   6.4681673   7.0161673   2.6631673
   8.0831673   3.4011673  18.3691673   8.9541673   3.3651673  18.3331673
   7.8641673   3.8211673  17.6371673   8.1801673   3.4571673  18.2561673
   3.4381673   5.3451673   2.0331673   4.1551673   4.9981673   1.6771673
   3.4041673   6.1451673   1.6851673   3.5391673   5.4121673   1.9291673
  62.5128665  79.0607665  94.0102985  90.0000000  90.0000000  90.0000000
